Compiler and run-time data
===========================================================================
RASPA 2.0.48
Compiled as a 64-bits application
Compiler: gcc 8.5.0 20210514 (Red Hat 8.5.0-18)
Compile Date = Apr 28 2024, Compile Time = 10:01:54

Sun Apr 28 11:29:35 2024
Simulation started on Sunday, April 28.
The start time was 11:29 AM.

Hostname:    exp-1-18
OS type:     Linux on x86_64
OS release:  4.18.0-477.15.1.el8_8.x86_64
OS version:  #1 SMP Wed Jun 28 15:04:18 UTC 2023

Simulation
===========================================================================
Dimensions: 3
Random number seed: 493896
RASPA directory set to: /expanse/lustre/projects/prd136/rgh/RASPA2_04_28_2024
String appended to output-files: 
Number of cycles: 2
Number of initializing cycles: 2
Number of equilibration cycles: 2
Print every: 1
Rectangular boundary condition applied
Timestep: 0.000500
	Degrees of freedom:                        1778
	Translational Degrees of freedom:          1758
	Rotational Degrees of freedom:             20
	Degrees of freedom Framework:              1728


Mutual consistent basic set of units:
======================================
Unit of temperature: Kelvin
Unit of length:      1e-10 [m]
Unit of time:        1e-12 [s]
Unit of mass:        1.66054e-27 [kg]
Unit of charge:      1.60218e-19 [C/particle]

Derived units and their conversion factors:
===========================================
Unit of energy:              1.66054e-23 [J]
Unit of force:               1.66054e-13 [N]
Unit of pressure:            1.66054e+07 [Pa]
Unit of velocity:            100 [m/s]
Unit of acceleration:        1e-08 [m^2/s]
Unit of diffusion:           1e-08 [m^2/s]
Unit of dipole moment:       1.60218e-29 [C.m]
Unit of electric potential:  0.000103643 [V]
Unit of electric field:      1.03643e+06 [V]
Unit of polarizability:      1.54587e-35 [-]
Unit of Coulomb potential:   167101.0800066561  [K]
Unit of dielectric constant: 0.0000154587       [s^2 C^2/(kg m^3)]
Unit of wave vectors:        5.3088374589       [cm^1]
Boltzmann constant:          0.8314464919       [-]

Internal conversion factors:
===========================================
Energy to Kelvin:                                    1.2027242847
FH correction factor                                 2.0211930949
Heat capacity conversion factor:                    10.0000088723
From Debye to internal units:                        4.8032067991
Isothermal compressibility conversion factor:        0.0000000602

Energy conversion factors:
===========================================
From mdyne/A to kcal/mol/A^2:           143.933
From mdyne/A to kj/mol/A^2:             602.214
From mdyne/A to K/A^2:                  72429.7
From mdyne A/rad^2 to kcal/mol/deg^2:   0.0438444


Properties computed
===========================================================================
Movies: no
Radial Distribution Function: no
Number of molecules GCMC histogram: no
Histogram of the molecule positions: no
Free energy profiles: no
Pore Size Distribution Function: no
End-to-end distance: no
Histogram of the energy of the system: no
Compute thermodynamic factors: no
Framework spacing histograms: no
Residence times histograms: no
Distance histograms: no
Bend Angle histograms: no
Dihedral angle histograms: no
Angle between planes histograms: no
Molecule properties: no
Infra-red spectra: no
Mean-squared displacement using modified order-N algorithm: yes
	msd is sampled every 1 cycles
	msd is written to file every 5000 cycles
	the (initial) maximum number of blocks: 25
	the number of elements per block: 25
	the msd's are computed per component
Velocity-autocorrelation function modified order-N algorithm: no
Rotational velocity-autocorrelation function modified order-N algorithm: no
Molecular orientation-autocorrelation function modified order-N algorithm: no
Bond orientation-autocorrelation function modified order-N algorithm: no
Mean-squared displacement (conventional algorithm): no
Velocity-autocorrelation function (conventional algorithm): no
3D density grid for adsorbates: no
Compute cation an/or adsorption sites: no
dcTST snapshots: no
Compute pressure and stress: no


VTK
===========================================================================
VTK fractional-range position framework atoms: [-0.001000,1.001000] [-0.001000,1.001000] [-0.001000,1.001000]
VTK fractional-range position framework bonds: [-0.151000,1.151000] [-0.151000,1.151000] [-0.151000,1.151000]
VTK fractional-range com-position adsorbate molecules: [-0.101000,1.101000] [-0.101000,1.101000] [-0.101000,1.101000]
VTK fractional-range com-position cation molecules: [-0.101000,1.101000] [-0.101000,1.101000] [-0.101000,1.101000]
	3D free energy grid made for the full simulation-cell


Thermo/Baro-stat NHC parameters
===========================================================================
External temperature: 298 [K]
Beta: 0.00403598 [energy unit]
External Pressure: 0 [Pa]


Thermostat chain-length: 3
Timescale parameter for thermostat: 0.150000 [ps]
Barostat chain-length:   3
Timescale parameter for barostat:   0.150000 [ps]

Number of Yoshida-Suzuki decomposition steps: 5
Number of respa steps: 5


Method and settings for electrostatics
===============================================================================
Dielectric constant of the medium : 1.000000
Charge from charge-equilibration: no
Ewald summation is used (exact solution of a periodic system)
Relative precision                : 1e-06
Alpha convergence parameter       : 0.265058
kvec (x,y,z)                      : 10 4 7


CFC-RXMC parameters
===========================================================================
Number of reactions: 0


Rattle parameters
===========================================================================
Distance constraint type: r^2-r^2_0
Bend angle constraint type: theta-theta_0
Dihedral angle constraint type: phi-phi_0
Inversion-bend angle constraint type: chi-chi_0
Out-of-plane distance constraint type: r-r_0


Spectra parameters
===========================================================================
Compute normal modes: no


Minimization parameters
===========================================================================
Generalized coordinates are: Cartesian center-of-mass, elements of the orientational matrix p1,p2,p3 and strain
Potential derivatives are evaluated: analytically
Translation of the system is removed from the generalized Hessian: no
Rotation of the system is removed from the generalized Hessian: no
Maximum step-length: 0.3
Convergence factor: 1
Maximum number of minimization steps: 10000
Use gradients in the line-minimizations: yes
RMS gradient tolerance: 1e-06
Maximum gradient tolerance: 1e-06

Distance constraints: 0
Angle constraints: 0
Dihedral constraints: 0

Improper dihedral constraints: 0

Inversion-bend constraints: 0

Out-of-plane constraints: 0

Harmonic distance constraints: 0
Harmonic angle constraints: 0
Harmonic dihedral constraints: 0

Dihedral mid-point measurements: 0

Number of fixed framework atoms: 0  (active: 576)
fixed atom-list: 
Number of active framework atoms: 576  (fixed: 0)
active atom-list: 

Fixed adsorbate atoms:  
Fixed adsorbate groups (center-of-mass):  
Fixed adsorbate groups (orientation):  

Fixed cation atoms:  
Fixed cation groups (center-of-mass):  
Fixed cation groups (orientation):  


dcTST parameters
===========================================================================
Free energy profiles computed: no
Free energy profiles written every 5000 cycles
Free energy mapping: mapped to a,b,c-coordinates
BarrierPosition:       0.0000000000       0.0000000000       0.0000000000
BarrierNormal:         0.0000000000       0.0000000000       0.0000000000
Start with a molecule on top of the barrier: no
Maximum distance to barrier (e.g. distance to minumum free energy):       0.0000000000 [A]
Maximum trajectory time:      10.0000000000 [ps]
Each configuration is used with 5 different initial velocities


Cbmc parameters
===========================================================================
Biasing method: using only the VDW part
Number of trial positions:                                       10
Number of trial positions (reinsertion):                         10
Number of trial positions (partial reinsertion):                 10
Number of trial positions (identity-change):                     10
Number of trial positions (Gibbs particle transfer):             10
Number of trial positions (insertion/deletion):                  10
Number of trial positions (Widom insertion):                     10
Number of trial positions coupled Torsion-selection:             100
Number of trial positions first bead:                            10
Number of trial positions first bead (reinsertion):              10
Number of trial positions first bead (partial reinsertion):      10
Number of trial positions first bead (identity-change):          10
Number of trial positions first bead (Gibbs particle transfer):  10
Number of trial positions first bead (insertion/deletion):       10
Number of trial positions first bead (Widom insertion):          10
Number of trial moves per open bead:                             150
Target acceptance ratio small-mc scheme:                         0.400000
Energy overlap criteria:                                         1e+07
Minimal Rosenbluth factor:                                       1e-150


Pseudo atoms: 104
===========================================================================
Pseudo Atom[   0] Name UNIT     Oxidation:          Element: H    pdb-name: H    Scat. Types:   1   1 Mass=1.000000000  B-factor:0.000   
                 Charge=1.000000000          Polarization=0.000000000  [A^3] (considered a charged atom and no polarization)  Interactions: yes
                 Anisotropic factor:    0.000 [-] (Absolute), Radius:    1.000 [A], Framework-atom:  no
Pseudo Atom[   1] Name O1       Oxidation: +0       Element: O    pdb-name: O    Scat. Types:   9   8 Mass=15.999400000 B-factor:1.000   
                 Charge=-0.503209000   (av)  Polarization=1.039966900  [A^3] (considered a charged atom and polarizable)  Interactions: yes
                 Anisotropic factor:    0.000 [-] (Relative), Radius:    0.890 [A], Framework-atom: yes (charge from structure file)
Pseudo Atom[   2] Name O2       Oxidation: +0       Element: O    pdb-name: O    Scat. Types:   9   8 Mass=15.999400000 B-factor:1.000   
                 Charge=-0.503208000   (av)  Polarization=1.039959490  [A^3] (considered a charged atom and polarizable)  Interactions: yes
                 Anisotropic factor:    0.000 [-] (Relative), Radius:    0.890 [A], Framework-atom: yes (charge from structure file)
Pseudo Atom[   3] Name O3       Oxidation: +0       Element: O    pdb-name: O    Scat. Types:   9   8 Mass=15.999400000 B-factor:1.000   
                 Charge=-0.503222000   (av)  Polarization=1.039980830  [A^3] (considered a charged atom and polarizable)  Interactions: yes
                 Anisotropic factor:    0.000 [-] (Relative), Radius:    0.890 [A], Framework-atom: yes (charge from structure file)
Pseudo Atom[   4] Name O4       Oxidation: +0       Element: O    pdb-name: O    Scat. Types:   9   8 Mass=15.999400000 B-factor:1.000   
                 Charge=-0.503327000   (av)  Polarization=1.040048690  [A^3] (considered a charged atom and polarizable)  Interactions: yes
                 Anisotropic factor:    0.000 [-] (Relative), Radius:    0.890 [A], Framework-atom: yes (charge from structure file)
Pseudo Atom[   5] Name O5       Oxidation: +0       Element: O    pdb-name: O    Scat. Types:   9   8 Mass=15.999400000 B-factor:1.000   
                 Charge=-0.503386000   (av)  Polarization=1.040048990  [A^3] (considered a charged atom and polarizable)  Interactions: yes
                 Anisotropic factor:    0.000 [-] (Relative), Radius:    0.890 [A], Framework-atom: yes (charge from structure file)
Pseudo Atom[   6] Name O6       Oxidation: +0       Element: O    pdb-name: O    Scat. Types:   9   8 Mass=15.999400000 B-factor:1.000   
                 Charge=-0.503341000   (av)  Polarization=1.040073440  [A^3] (considered a charged atom and polarizable)  Interactions: yes
                 Anisotropic factor:    0.000 [-] (Relative), Radius:    0.890 [A], Framework-atom: yes (charge from structure file)
Pseudo Atom[   7] Name O7       Oxidation: +0       Element: O    pdb-name: O    Scat. Types:   9   8 Mass=15.999400000 B-factor:1.000   
                 Charge=-0.503391000   (av)  Polarization=1.040050180  [A^3] (considered a charged atom and polarizable)  Interactions: yes
                 Anisotropic factor:    0.000 [-] (Relative), Radius:    0.890 [A], Framework-atom: yes (charge from structure file)
Pseudo Atom[   8] Name O8       Oxidation: +0       Element: O    pdb-name: O    Scat. Types:   9   8 Mass=15.999400000 B-factor:1.000   
                 Charge=-0.503316000   (av)  Polarization=1.040036690  [A^3] (considered a charged atom and polarizable)  Interactions: yes
                 Anisotropic factor:    0.000 [-] (Relative), Radius:    0.890 [A], Framework-atom: yes (charge from structure file)
Pseudo Atom[   9] Name O9       Oxidation: +0       Element: O    pdb-name: O    Scat. Types:   9   8 Mass=15.999400000 B-factor:1.000   
                 Charge=-0.503391000   (av)  Polarization=1.040053580  [A^3] (considered a charged atom and polarizable)  Interactions: yes
                 Anisotropic factor:    0.000 [-] (Relative), Radius:    0.890 [A], Framework-atom: yes (charge from structure file)
Pseudo Atom[  10] Name O10      Oxidation: +0       Element: O    pdb-name: O    Scat. Types:   9   8 Mass=15.999400000 B-factor:1.000   
                 Charge=-0.503336000   (av)  Polarization=1.040065140  [A^3] (considered a charged atom and polarizable)  Interactions: yes
                 Anisotropic factor:    0.000 [-] (Relative), Radius:    0.890 [A], Framework-atom: yes (charge from structure file)
Pseudo Atom[  11] Name O11      Oxidation: +0       Element: O    pdb-name: O    Scat. Types:   9   8 Mass=15.999400000 B-factor:1.000   
                 Charge=-0.503391000   (av)  Polarization=1.040051210  [A^3] (considered a charged atom and polarizable)  Interactions: yes
                 Anisotropic factor:    0.000 [-] (Relative), Radius:    0.890 [A], Framework-atom: yes (charge from structure file)
Pseudo Atom[  12] Name O12      Oxidation: +0       Element: O    pdb-name: O    Scat. Types:   9   8 Mass=15.999400000 B-factor:1.000   
                 Charge=-0.503311000   (av)  Polarization=1.040037580  [A^3] (considered a charged atom and polarizable)  Interactions: yes
                 Anisotropic factor:    0.000 [-] (Relative), Radius:    0.890 [A], Framework-atom: yes (charge from structure file)
Pseudo Atom[  13] Name O13      Oxidation: +0       Element: O    pdb-name: O    Scat. Types:   9   8 Mass=15.999400000 B-factor:1.000   
                 Charge=-0.503212000   (av)  Polarization=1.039989120  [A^3] (considered a charged atom and polarizable)  Interactions: yes
                 Anisotropic factor:    0.000 [-] (Relative), Radius:    0.890 [A], Framework-atom: yes (charge from structure file)
Pseudo Atom[  14] Name O14      Oxidation: +0       Element: O    pdb-name: O    Scat. Types:   9   8 Mass=15.999400000 B-factor:1.000   
                 Charge=-0.503196000   (av)  Polarization=1.039949560  [A^3] (considered a charged atom and polarizable)  Interactions: yes
                 Anisotropic factor:    0.000 [-] (Relative), Radius:    0.890 [A], Framework-atom: yes (charge from structure file)
Pseudo Atom[  15] Name O15      Oxidation: +0       Element: O    pdb-name: O    Scat. Types:   9   8 Mass=15.999400000 B-factor:1.000   
                 Charge=-0.503215000   (av)  Polarization=1.039959340  [A^3] (considered a charged atom and polarizable)  Interactions: yes
                 Anisotropic factor:    0.000 [-] (Relative), Radius:    0.890 [A], Framework-atom: yes (charge from structure file)
Pseudo Atom[  16] Name O16      Oxidation: +0       Element: O    pdb-name: O    Scat. Types:   9   8 Mass=15.999400000 B-factor:1.000   
                 Charge=-0.503248000   (av)  Polarization=1.039965560  [A^3] (considered a charged atom and polarizable)  Interactions: yes
                 Anisotropic factor:    0.000 [-] (Relative), Radius:    0.890 [A], Framework-atom: yes (charge from structure file)
Pseudo Atom[  17] Name O17      Oxidation: +0       Element: O    pdb-name: O    Scat. Types:   9   8 Mass=15.999400000 B-factor:1.000   
                 Charge=-0.643266000   (av)  Polarization=1.257636350  [A^3] (considered a charged atom and polarizable)  Interactions: yes
                 Anisotropic factor:    0.000 [-] (Relative), Radius:    0.890 [A], Framework-atom: yes (charge from structure file)
Pseudo Atom[  18] Name O18      Oxidation: +0       Element: O    pdb-name: O    Scat. Types:   9   8 Mass=15.999400000 B-factor:1.000   
                 Charge=-0.643364000   (av)  Polarization=1.257632060  [A^3] (considered a charged atom and polarizable)  Interactions: yes
                 Anisotropic factor:    0.000 [-] (Relative), Radius:    0.890 [A], Framework-atom: yes (charge from structure file)
Pseudo Atom[  19] Name O19      Oxidation: +0       Element: O    pdb-name: O    Scat. Types:   9   8 Mass=15.999400000 B-factor:1.000   
                 Charge=-0.643681000   (av)  Polarization=1.257755350  [A^3] (considered a charged atom and polarizable)  Interactions: yes
                 Anisotropic factor:    0.000 [-] (Relative), Radius:    0.890 [A], Framework-atom: yes (charge from structure file)
Pseudo Atom[  20] Name O20      Oxidation: +0       Element: O    pdb-name: O    Scat. Types:   9   8 Mass=15.999400000 B-factor:1.000   
                 Charge=-0.643275000   (av)  Polarization=1.257607460  [A^3] (considered a charged atom and polarizable)  Interactions: yes
                 Anisotropic factor:    0.000 [-] (Relative), Radius:    0.890 [A], Framework-atom: yes (charge from structure file)
Pseudo Atom[  21] Name C21      Oxidation: +0       Element: C    pdb-name: C    Scat. Types:   7   6 Mass=12.010700000 B-factor:1.000   
                 Charge=-0.088386000   (av)  Polarization=1.056077990  [A^3] (considered a charged atom and polarizable)  Interactions: yes
                 Anisotropic factor:    0.000 [-] (Relative), Radius:    0.880 [A], Framework-atom: yes (charge from structure file)
Pseudo Atom[  22] Name C22      Oxidation: +0       Element: C    pdb-name: C    Scat. Types:   7   6 Mass=12.010700000 B-factor:1.000   
                 Charge=-0.088378000   (av)  Polarization=1.056065830  [A^3] (considered a charged atom and polarizable)  Interactions: yes
                 Anisotropic factor:    0.000 [-] (Relative), Radius:    0.880 [A], Framework-atom: yes (charge from structure file)
Pseudo Atom[  23] Name C23      Oxidation: +0       Element: C    pdb-name: C    Scat. Types:   7   6 Mass=12.010700000 B-factor:1.000   
                 Charge=-0.088347000   (av)  Polarization=1.056041240  [A^3] (considered a charged atom and polarizable)  Interactions: yes
                 Anisotropic factor:    0.000 [-] (Relative), Radius:    0.880 [A], Framework-atom: yes (charge from structure file)
Pseudo Atom[  24] Name C24      Oxidation: +0       Element: C    pdb-name: C    Scat. Types:   7   6 Mass=12.010700000 B-factor:1.000   
                 Charge=-0.088373000   (av)  Polarization=1.056065090  [A^3] (considered a charged atom and polarizable)  Interactions: yes
                 Anisotropic factor:    0.000 [-] (Relative), Radius:    0.880 [A], Framework-atom: yes (charge from structure file)
Pseudo Atom[  25] Name C25      Oxidation: +0       Element: C    pdb-name: C    Scat. Types:   7   6 Mass=12.010700000 B-factor:1.000   
                 Charge=-0.088365000   (av)  Polarization=1.056048650  [A^3] (considered a charged atom and polarizable)  Interactions: yes
                 Anisotropic factor:    0.000 [-] (Relative), Radius:    0.880 [A], Framework-atom: yes (charge from structure file)
Pseudo Atom[  26] Name C26      Oxidation: +0       Element: C    pdb-name: C    Scat. Types:   7   6 Mass=12.010700000 B-factor:1.000   
                 Charge=-0.088377000   (av)  Polarization=1.056028790  [A^3] (considered a charged atom and polarizable)  Interactions: yes
                 Anisotropic factor:    0.000 [-] (Relative), Radius:    0.880 [A], Framework-atom: yes (charge from structure file)
Pseudo Atom[  27] Name C27      Oxidation: +0       Element: C    pdb-name: C    Scat. Types:   7   6 Mass=12.010700000 B-factor:1.000   
                 Charge=-0.088359000   (av)  Polarization=1.056046570  [A^3] (considered a charged atom and polarizable)  Interactions: yes
                 Anisotropic factor:    0.000 [-] (Relative), Radius:    0.880 [A], Framework-atom: yes (charge from structure file)
Pseudo Atom[  28] Name C28      Oxidation: +0       Element: C    pdb-name: C    Scat. Types:   7   6 Mass=12.010700000 B-factor:1.000   
                 Charge=-0.088356000   (av)  Polarization=1.056047310  [A^3] (considered a charged atom and polarizable)  Interactions: yes
                 Anisotropic factor:    0.000 [-] (Relative), Radius:    0.880 [A], Framework-atom: yes (charge from structure file)
Pseudo Atom[  29] Name C29      Oxidation: +0       Element: C    pdb-name: C    Scat. Types:   7   6 Mass=12.010700000 B-factor:1.000   
                 Charge=-0.088368000   (av)  Polarization=1.056050130  [A^3] (considered a charged atom and polarizable)  Interactions: yes
                 Anisotropic factor:    0.000 [-] (Relative), Radius:    0.880 [A], Framework-atom: yes (charge from structure file)
Pseudo Atom[  30] Name C30      Oxidation: +0       Element: C    pdb-name: C    Scat. Types:   7   6 Mass=12.010700000 B-factor:1.000   
                 Charge=-0.088380000   (av)  Polarization=1.056037830  [A^3] (considered a charged atom and polarizable)  Interactions: yes
                 Anisotropic factor:    0.000 [-] (Relative), Radius:    0.880 [A], Framework-atom: yes (charge from structure file)
Pseudo Atom[  31] Name C31      Oxidation: +0       Element: C    pdb-name: C    Scat. Types:   7   6 Mass=12.010700000 B-factor:1.000   
                 Charge=-0.088364000   (av)  Polarization=1.056053390  [A^3] (considered a charged atom and polarizable)  Interactions: yes
                 Anisotropic factor:    0.000 [-] (Relative), Radius:    0.880 [A], Framework-atom: yes (charge from structure file)
Pseudo Atom[  32] Name C32      Oxidation: +0       Element: C    pdb-name: C    Scat. Types:   7   6 Mass=12.010700000 B-factor:1.000   
                 Charge=-0.088359000   (av)  Polarization=1.056049390  [A^3] (considered a charged atom and polarizable)  Interactions: yes
                 Anisotropic factor:    0.000 [-] (Relative), Radius:    0.880 [A], Framework-atom: yes (charge from structure file)
Pseudo Atom[  33] Name C33      Oxidation: +0       Element: C    pdb-name: C    Scat. Types:   7   6 Mass=12.010700000 B-factor:1.000   
                 Charge=-0.088385000   (av)  Polarization=1.056074130  [A^3] (considered a charged atom and polarizable)  Interactions: yes
                 Anisotropic factor:    0.000 [-] (Relative), Radius:    0.880 [A], Framework-atom: yes (charge from structure file)
Pseudo Atom[  34] Name C34      Oxidation: +0       Element: C    pdb-name: C    Scat. Types:   7   6 Mass=12.010700000 B-factor:1.000   
                 Charge=-0.088374000   (av)  Polarization=1.056062720  [A^3] (considered a charged atom and polarizable)  Interactions: yes
                 Anisotropic factor:    0.000 [-] (Relative), Radius:    0.880 [A], Framework-atom: yes (charge from structure file)
Pseudo Atom[  35] Name C35      Oxidation: +0       Element: C    pdb-name: C    Scat. Types:   7   6 Mass=12.010700000 B-factor:1.000   
                 Charge=-0.088344000   (av)  Polarization=1.056044050  [A^3] (considered a charged atom and polarizable)  Interactions: yes
                 Anisotropic factor:    0.000 [-] (Relative), Radius:    0.880 [A], Framework-atom: yes (charge from structure file)
Pseudo Atom[  36] Name C36      Oxidation: +0       Element: C    pdb-name: C    Scat. Types:   7   6 Mass=12.010700000 B-factor:1.000   
                 Charge=-0.088372000   (av)  Polarization=1.056067170  [A^3] (considered a charged atom and polarizable)  Interactions: yes
                 Anisotropic factor:    0.000 [-] (Relative), Radius:    0.880 [A], Framework-atom: yes (charge from structure file)
Pseudo Atom[  37] Name C37      Oxidation: +0       Element: C    pdb-name: C    Scat. Types:   7   6 Mass=12.010700000 B-factor:1.000   
                 Charge=-0.020918000   (av)  Polarization=1.021168330  [A^3] (considered a charged atom and polarizable)  Interactions: yes
                 Anisotropic factor:    0.000 [-] (Relative), Radius:    0.880 [A], Framework-atom: yes (charge from structure file)
Pseudo Atom[  38] Name C38      Oxidation: +0       Element: C    pdb-name: C    Scat. Types:   7   6 Mass=12.010700000 B-factor:1.000   
                 Charge=0.602369000    (av)  Polarization=0.830846660  [A^3] (considered a charged atom and polarizable)  Interactions: yes
                 Anisotropic factor:    0.000 [-] (Relative), Radius:    0.880 [A], Framework-atom: yes (charge from structure file)
Pseudo Atom[  39] Name C39      Oxidation: +0       Element: C    pdb-name: C    Scat. Types:   7   6 Mass=12.010700000 B-factor:1.000   
                 Charge=-0.020926000   (av)  Polarization=1.021153660  [A^3] (considered a charged atom and polarizable)  Interactions: yes
                 Anisotropic factor:    0.000 [-] (Relative), Radius:    0.880 [A], Framework-atom: yes (charge from structure file)
Pseudo Atom[  40] Name C40      Oxidation: +0       Element: C    pdb-name: C    Scat. Types:   7   6 Mass=12.010700000 B-factor:1.000   
                 Charge=0.602289000    (av)  Polarization=0.830892000  [A^3] (considered a charged atom and polarizable)  Interactions: yes
                 Anisotropic factor:    0.000 [-] (Relative), Radius:    0.880 [A], Framework-atom: yes (charge from structure file)
Pseudo Atom[  41] Name C41      Oxidation: +0       Element: C    pdb-name: C    Scat. Types:   7   6 Mass=12.010700000 B-factor:1.000   
                 Charge=-0.021062000   (av)  Polarization=1.021265540  [A^3] (considered a charged atom and polarizable)  Interactions: yes
                 Anisotropic factor:    0.000 [-] (Relative), Radius:    0.880 [A], Framework-atom: yes (charge from structure file)
Pseudo Atom[  42] Name C42      Oxidation: +0       Element: C    pdb-name: C    Scat. Types:   7   6 Mass=12.010700000 B-factor:1.000   
                 Charge=0.602422000    (av)  Polarization=0.830838660  [A^3] (considered a charged atom and polarizable)  Interactions: yes
                 Anisotropic factor:    0.000 [-] (Relative), Radius:    0.880 [A], Framework-atom: yes (charge from structure file)
Pseudo Atom[  43] Name C43      Oxidation: +0       Element: C    pdb-name: C    Scat. Types:   7   6 Mass=12.010700000 B-factor:1.000   
                 Charge=-0.020958000   (av)  Polarization=1.021161070  [A^3] (considered a charged atom and polarizable)  Interactions: yes
                 Anisotropic factor:    0.000 [-] (Relative), Radius:    0.880 [A], Framework-atom: yes (charge from structure file)
Pseudo Atom[  44] Name C44      Oxidation: +0       Element: C    pdb-name: C    Scat. Types:   7   6 Mass=12.010700000 B-factor:1.000   
                 Charge=0.602458000    (av)  Polarization=0.830839700  [A^3] (considered a charged atom and polarizable)  Interactions: yes
                 Anisotropic factor:    0.000 [-] (Relative), Radius:    0.880 [A], Framework-atom: yes (charge from structure file)
Pseudo Atom[  45] Name C45      Oxidation: +0       Element: C    pdb-name: C    Scat. Types:   7   6 Mass=12.010700000 B-factor:1.000   
                 Charge=-0.020995000   (av)  Polarization=1.021220040  [A^3] (considered a charged atom and polarizable)  Interactions: yes
                 Anisotropic factor:    0.000 [-] (Relative), Radius:    0.880 [A], Framework-atom: yes (charge from structure file)
Pseudo Atom[  46] Name C46      Oxidation: +0       Element: C    pdb-name: C    Scat. Types:   7   6 Mass=12.010700000 B-factor:1.000   
                 Charge=0.602592000    (av)  Polarization=0.830752710  [A^3] (considered a charged atom and polarizable)  Interactions: yes
                 Anisotropic factor:    0.000 [-] (Relative), Radius:    0.880 [A], Framework-atom: yes (charge from structure file)
Pseudo Atom[  47] Name C47      Oxidation: +0       Element: C    pdb-name: C    Scat. Types:   7   6 Mass=12.010700000 B-factor:1.000   
                 Charge=-0.020992000   (av)  Polarization=1.021246720  [A^3] (considered a charged atom and polarizable)  Interactions: yes
                 Anisotropic factor:    0.000 [-] (Relative), Radius:    0.880 [A], Framework-atom: yes (charge from structure file)
Pseudo Atom[  48] Name C48      Oxidation: +0       Element: C    pdb-name: C    Scat. Types:   7   6 Mass=12.010700000 B-factor:1.000   
                 Charge=0.602552000    (av)  Polarization=0.830760270  [A^3] (considered a charged atom and polarizable)  Interactions: yes
                 Anisotropic factor:    0.000 [-] (Relative), Radius:    0.880 [A], Framework-atom: yes (charge from structure file)
Pseudo Atom[  49] Name C49      Oxidation: +0       Element: C    pdb-name: C    Scat. Types:   7   6 Mass=12.010700000 B-factor:1.000   
                 Charge=-0.020963000   (av)  Polarization=1.021209520  [A^3] (considered a charged atom and polarizable)  Interactions: yes
                 Anisotropic factor:    0.000 [-] (Relative), Radius:    0.880 [A], Framework-atom: yes (charge from structure file)
Pseudo Atom[  50] Name C50      Oxidation: +0       Element: C    pdb-name: C    Scat. Types:   7   6 Mass=12.010700000 B-factor:1.000   
                 Charge=0.602583000    (av)  Polarization=0.830757450  [A^3] (considered a charged atom and polarizable)  Interactions: yes
                 Anisotropic factor:    0.000 [-] (Relative), Radius:    0.880 [A], Framework-atom: yes (charge from structure file)
Pseudo Atom[  51] Name C51      Oxidation: +0       Element: C    pdb-name: C    Scat. Types:   7   6 Mass=12.010700000 B-factor:1.000   
                 Charge=-0.020992000   (av)  Polarization=1.021217520  [A^3] (considered a charged atom and polarizable)  Interactions: yes
                 Anisotropic factor:    0.000 [-] (Relative), Radius:    0.880 [A], Framework-atom: yes (charge from structure file)
Pseudo Atom[  52] Name C52      Oxidation: +0       Element: C    pdb-name: C    Scat. Types:   7   6 Mass=12.010700000 B-factor:1.000   
                 Charge=0.602522000    (av)  Polarization=0.830798650  [A^3] (considered a charged atom and polarizable)  Interactions: yes
                 Anisotropic factor:    0.000 [-] (Relative), Radius:    0.880 [A], Framework-atom: yes (charge from structure file)
Pseudo Atom[  53] Name H53      Oxidation: +0       Element: H    pdb-name: H    Scat. Types:   1   1 Mass=1.007940000  B-factor:1.000   
                 Charge=0.119092000    (av)  Polarization=0.289043670  [A^3] (considered a charged atom and polarizable)  Interactions: yes
                 Anisotropic factor:    0.000 [-] (Relative), Radius:    0.380 [A], Framework-atom: yes (charge from structure file)
Pseudo Atom[  54] Name H54      Oxidation: +0       Element: H    pdb-name: H    Scat. Types:   1   1 Mass=1.007940000  B-factor:1.000   
                 Charge=0.119110000    (av)  Polarization=0.289049160  [A^3] (considered a charged atom and polarizable)  Interactions: yes
                 Anisotropic factor:    0.000 [-] (Relative), Radius:    0.380 [A], Framework-atom: yes (charge from structure file)
Pseudo Atom[  55] Name H55      Oxidation: +0       Element: H    pdb-name: H    Scat. Types:   1   1 Mass=1.007940000  B-factor:1.000   
                 Charge=0.119092000    (av)  Polarization=0.289049750  [A^3] (considered a charged atom and polarizable)  Interactions: yes
                 Anisotropic factor:    0.000 [-] (Relative), Radius:    0.380 [A], Framework-atom: yes (charge from structure file)
Pseudo Atom[  56] Name H56      Oxidation: +0       Element: H    pdb-name: H    Scat. Types:   1   1 Mass=1.007940000  B-factor:1.000   
                 Charge=0.119103000    (av)  Polarization=0.289040560  [A^3] (considered a charged atom and polarizable)  Interactions: yes
                 Anisotropic factor:    0.000 [-] (Relative), Radius:    0.380 [A], Framework-atom: yes (charge from structure file)
Pseudo Atom[  57] Name H57      Oxidation: +0       Element: H    pdb-name: H    Scat. Types:   1   1 Mass=1.007940000  B-factor:1.000   
                 Charge=0.119105000    (av)  Polarization=0.289037450  [A^3] (considered a charged atom and polarizable)  Interactions: yes
                 Anisotropic factor:    0.000 [-] (Relative), Radius:    0.380 [A], Framework-atom: yes (charge from structure file)
Pseudo Atom[  58] Name H58      Oxidation: +0       Element: H    pdb-name: H    Scat. Types:   1   1 Mass=1.007940000  B-factor:1.000   
                 Charge=0.119121000    (av)  Polarization=0.289046640  [A^3] (considered a charged atom and polarizable)  Interactions: yes
                 Anisotropic factor:    0.000 [-] (Relative), Radius:    0.380 [A], Framework-atom: yes (charge from structure file)
Pseudo Atom[  59] Name H59      Oxidation: +0       Element: H    pdb-name: H    Scat. Types:   1   1 Mass=1.007940000  B-factor:1.000   
                 Charge=0.119103000    (av)  Polarization=0.289030780  [A^3] (considered a charged atom and polarizable)  Interactions: yes
                 Anisotropic factor:    0.000 [-] (Relative), Radius:    0.380 [A], Framework-atom: yes (charge from structure file)
Pseudo Atom[  60] Name H60      Oxidation: +0       Element: H    pdb-name: H    Scat. Types:   1   1 Mass=1.007940000  B-factor:1.000   
                 Charge=0.119106000    (av)  Polarization=0.289047670  [A^3] (considered a charged atom and polarizable)  Interactions: yes
                 Anisotropic factor:    0.000 [-] (Relative), Radius:    0.380 [A], Framework-atom: yes (charge from structure file)
Pseudo Atom[  61] Name H61      Oxidation: +0       Element: H    pdb-name: H    Scat. Types:   1   1 Mass=1.007940000  B-factor:1.000   
                 Charge=0.119107000    (av)  Polarization=0.289035520  [A^3] (considered a charged atom and polarizable)  Interactions: yes
                 Anisotropic factor:    0.000 [-] (Relative), Radius:    0.380 [A], Framework-atom: yes (charge from structure file)
Pseudo Atom[  62] Name H62      Oxidation: +0       Element: H    pdb-name: H    Scat. Types:   1   1 Mass=1.007940000  B-factor:1.000   
                 Charge=0.119115000    (av)  Polarization=0.289047970  [A^3] (considered a charged atom and polarizable)  Interactions: yes
                 Anisotropic factor:    0.000 [-] (Relative), Radius:    0.380 [A], Framework-atom: yes (charge from structure file)
Pseudo Atom[  63] Name H63      Oxidation: +0       Element: H    pdb-name: H    Scat. Types:   1   1 Mass=1.007940000  B-factor:1.000   
                 Charge=0.119104000    (av)  Polarization=0.289032110  [A^3] (considered a charged atom and polarizable)  Interactions: yes
                 Anisotropic factor:    0.000 [-] (Relative), Radius:    0.380 [A], Framework-atom: yes (charge from structure file)
Pseudo Atom[  64] Name H64      Oxidation: +0       Element: H    pdb-name: H    Scat. Types:   1   1 Mass=1.007940000  B-factor:1.000   
                 Charge=0.119107000    (av)  Polarization=0.289046930  [A^3] (considered a charged atom and polarizable)  Interactions: yes
                 Anisotropic factor:    0.000 [-] (Relative), Radius:    0.380 [A], Framework-atom: yes (charge from structure file)
Pseudo Atom[  65] Name H65      Oxidation: +0       Element: H    pdb-name: H    Scat. Types:   1   1 Mass=1.007940000  B-factor:1.000   
                 Charge=0.119091000    (av)  Polarization=0.289042780  [A^3] (considered a charged atom and polarizable)  Interactions: yes
                 Anisotropic factor:    0.000 [-] (Relative), Radius:    0.380 [A], Framework-atom: yes (charge from structure file)
Pseudo Atom[  66] Name H66      Oxidation: +0       Element: H    pdb-name: H    Scat. Types:   1   1 Mass=1.007940000  B-factor:1.000   
                 Charge=0.119111000    (av)  Polarization=0.289049010  [A^3] (considered a charged atom and polarizable)  Interactions: yes
                 Anisotropic factor:    0.000 [-] (Relative), Radius:    0.380 [A], Framework-atom: yes (charge from structure file)
Pseudo Atom[  67] Name H67      Oxidation: +0       Element: H    pdb-name: H    Scat. Types:   1   1 Mass=1.007940000  B-factor:1.000   
                 Charge=0.119092000    (av)  Polarization=0.289050640  [A^3] (considered a charged atom and polarizable)  Interactions: yes
                 Anisotropic factor:    0.000 [-] (Relative), Radius:    0.380 [A], Framework-atom: yes (charge from structure file)
Pseudo Atom[  68] Name H68      Oxidation: +0       Element: H    pdb-name: H    Scat. Types:   1   1 Mass=1.007940000  B-factor:1.000   
                 Charge=0.119103000    (av)  Polarization=0.289043670  [A^3] (considered a charged atom and polarizable)  Interactions: yes
                 Anisotropic factor:    0.000 [-] (Relative), Radius:    0.380 [A], Framework-atom: yes (charge from structure file)
Pseudo Atom[  69] Name Ga69     Oxidation: +0       Element: Ga   pdb-name: Ga   Scat. Types:  32  31 Mass=69.723000000 B-factor:1.000   
                 Charge=1.370733000    (av)  Polarization=1.671593100  [A^3] (considered a charged atom and polarizable)  Interactions: yes
                 Anisotropic factor:    0.000 [-] (Relative), Radius:    1.400 [A], Framework-atom: yes (charge from structure file)
Pseudo Atom[  70] Name Ga70     Oxidation: +0       Element: Ga   pdb-name: Ga   Scat. Types:  32  31 Mass=69.723000000 B-factor:1.000   
                 Charge=1.370544000    (av)  Polarization=1.671739810  [A^3] (considered a charged atom and polarizable)  Interactions: yes
                 Anisotropic factor:    0.000 [-] (Relative), Radius:    1.400 [A], Framework-atom: yes (charge from structure file)
Pseudo Atom[  71] Name Ga71     Oxidation: +0       Element: Ga   pdb-name: Ga   Scat. Types:  32  31 Mass=69.723000000 B-factor:1.000   
                 Charge=1.370709000    (av)  Polarization=1.671592070  [A^3] (considered a charged atom and polarizable)  Interactions: yes
                 Anisotropic factor:    0.000 [-] (Relative), Radius:    1.400 [A], Framework-atom: yes (charge from structure file)
Pseudo Atom[  72] Name Ga72     Oxidation: +0       Element: Ga   pdb-name: Ga   Scat. Types:  32  31 Mass=69.723000000 B-factor:1.000   
                 Charge=1.370546000    (av)  Polarization=1.671733730  [A^3] (considered a charged atom and polarizable)  Interactions: yes
                 Anisotropic factor:    0.000 [-] (Relative), Radius:    1.400 [A], Framework-atom: yes (charge from structure file)
Pseudo Atom[  73] Name He       Oxidation: +0       Element: He   pdb-name: He   Scat. Types:   3   2 Mass=4.002602000  B-factor:1.000   
                 Charge=0.000000000          Polarization=0.000000000  [A^3] (considered a chargeless atom and no polarization)  Interactions: yes
                 Anisotropic factor:    0.000 [-] (Relative), Radius:    1.000 [A], Framework-atom:  no
Pseudo Atom[  74] Name CH4_sp3  Oxidation: +0       Element: C    pdb-name: C    Scat. Types:   7   6 Mass=16.042460000 B-factor:1.000   
                 Charge=0.000000000          Polarization=0.000000000  [A^3] (considered a chargeless atom and no polarization)  Interactions: yes
                 Anisotropic factor:    0.000 [-] (Relative), Radius:    1.000 [A], Framework-atom:  no
Pseudo Atom[  75] Name CH3_sp3  Oxidation: +0       Element: C    pdb-name: C    Scat. Types:   7   6 Mass=15.034520000 B-factor:1.000   
                 Charge=0.000000000          Polarization=0.000000000  [A^3] (considered a chargeless atom and no polarization)  Interactions: yes
                 Anisotropic factor:    0.000 [-] (Relative), Radius:    1.000 [A], Framework-atom:  no
Pseudo Atom[  76] Name CH2_sp3  Oxidation: +0       Element: C    pdb-name: C    Scat. Types:   7   6 Mass=14.026580000 B-factor:1.000   
                 Charge=0.000000000          Polarization=0.000000000  [A^3] (considered a chargeless atom and no polarization)  Interactions: yes
                 Anisotropic factor:    0.000 [-] (Relative), Radius:    1.000 [A], Framework-atom:  no
Pseudo Atom[  77] Name CH_sp3   Oxidation: +0       Element: C    pdb-name: C    Scat. Types:   7   6 Mass=13.018640000 B-factor:1.000   
                 Charge=0.000000000          Polarization=0.000000000  [A^3] (considered a chargeless atom and no polarization)  Interactions: yes
                 Anisotropic factor:    0.000 [-] (Relative), Radius:    1.000 [A], Framework-atom:  no
Pseudo Atom[  78] Name C_sp3    Oxidation: +0       Element: C    pdb-name: C    Scat. Types:   7   6 Mass=12.000000000 B-factor:1.000   
                 Charge=0.000000000          Polarization=0.000000000  [A^3] (considered a chargeless atom and no polarization)  Interactions: yes
                 Anisotropic factor:    0.000 [-] (Relative), Radius:    1.000 [A], Framework-atom:  no
Pseudo Atom[  79] Name H_h2     Oxidation: +0       Element: H    pdb-name: H    Scat. Types:   1   1 Mass=1.007940000  B-factor:1.000   
                 Charge=0.468000000          Polarization=0.000000000  [A^3] (considered a charged atom and no polarization)  Interactions:  no
                 Anisotropic factor:    0.000 [-] (Relative), Radius:    0.700 [A], Framework-atom:  no
Pseudo Atom[  80] Name H_com    Oxidation: +0       Element: H    pdb-name: H    Scat. Types:   1   1 Mass=0.000000000  B-factor:1.000   
                 Charge=-0.936000000         Polarization=0.000000000  [A^3] (considered a charged atom and no polarization)  Interactions: yes
                 Anisotropic factor:    0.000 [-] (Relative), Radius:    0.700 [A], Framework-atom:  no
Pseudo Atom[  81] Name C_co2    Oxidation: +0       Element: C    pdb-name: C    Scat. Types:   7   6 Mass=12.000000000 B-factor:1.000   
                 Charge=0.700000000          Polarization=0.000000000  [A^3] (considered a charged atom and no polarization)  Interactions: yes
                 Anisotropic factor:    0.000 [-] (Relative), Radius:    0.720 [A], Framework-atom:  no
Pseudo Atom[  82] Name O_co2    Oxidation: +0       Element: O    pdb-name: O    Scat. Types:   9   8 Mass=15.999400000 B-factor:1.000   
                 Charge=-0.350000000         Polarization=0.000000000  [A^3] (considered a charged atom and no polarization)  Interactions: yes
                 Anisotropic factor:    0.000 [-] (Relative), Radius:    0.680 [A], Framework-atom:  no
Pseudo Atom[  83] Name O_o2     Oxidation: +0       Element: O    pdb-name: O    Scat. Types:   9   8 Mass=15.999400000 B-factor:1.000   
                 Charge=-0.112000000         Polarization=0.000000000  [A^3] (considered a charged atom and no polarization)  Interactions:  no
                 Anisotropic factor:    0.000 [-] (Relative), Radius:    0.700 [A], Framework-atom:  no
Pseudo Atom[  84] Name O_com    Oxidation: +0       Element: -    pdb-name: O    Scat. Types:   0   8 Mass=0.000000000  B-factor:1.000   
                 Charge=0.224000000          Polarization=0.000000000  [A^3] (considered a charged atom and no polarization)  Interactions:  no
                 Anisotropic factor:    0.000 [-] (Relative), Radius:    0.700 [A], Framework-atom:  no
Pseudo Atom[  85] Name N_n2     Oxidation: +0       Element: N    pdb-name: N    Scat. Types:   8   7 Mass=14.006740000 B-factor:1.000   
                 Charge=-0.404800000         Polarization=0.000000000  [A^3] (considered a charged atom and no polarization)  Interactions: yes
                 Anisotropic factor:    0.000 [-] (Relative), Radius:    0.700 [A], Framework-atom:  no
Pseudo Atom[  86] Name N_com    Oxidation: +0       Element: -    pdb-name: N    Scat. Types:   0   7 Mass=0.000000000  B-factor:1.000   
                 Charge=0.809600000          Polarization=0.000000000  [A^3] (considered a charged atom and no polarization)  Interactions:  no
                 Anisotropic factor:    0.000 [-] (Relative), Radius:    0.700 [A], Framework-atom:  no
Pseudo Atom[  87] Name Ar       Oxidation: +0       Element: Ar   pdb-name: Ar   Scat. Types:  19  18 Mass=39.948000000 B-factor:1.000   
                 Charge=0.000000000          Polarization=0.000000000  [A^3] (considered a chargeless atom and no polarization)  Interactions: yes
                 Anisotropic factor:    0.000 [-] (Relative), Radius:    0.700 [A], Framework-atom:  no
Pseudo Atom[  88] Name Ow       Oxidation: +0       Element: O    pdb-name: O    Scat. Types:   9   8 Mass=15.999400000 B-factor:1.000   
                 Charge=0.000000000          Polarization=0.000000000  [A^3] (considered a chargeless atom and no polarization)  Interactions: yes
                 Anisotropic factor:    0.000 [-] (Relative), Radius:    0.500 [A], Framework-atom:  no
Pseudo Atom[  89] Name Hw       Oxidation: +0       Element: H    pdb-name: H    Scat. Types:   1   1 Mass=1.007940000  B-factor:1.000   
                 Charge=0.241000000          Polarization=0.000000000  [A^3] (considered a charged atom and no polarization)  Interactions:  no
                 Anisotropic factor:    0.000 [-] (Relative), Radius:    1.000 [A], Framework-atom:  no
Pseudo Atom[  90] Name Hw       Oxidation: +0       Element: H    pdb-name: H    Scat. Types:   1   1 Mass=1.007940000  B-factor:1.000   
                 Charge=0.241000000          Polarization=0.000000000  [A^3] (considered a charged atom and no polarization)  Interactions:  no
                 Anisotropic factor:    0.000 [-] (Relative), Radius:    1.000 [A], Framework-atom:  no
Pseudo Atom[  91] Name Lw       Oxidation: +0       Element: H    pdb-name: L    Scat. Types:   1   3 Mass=0.000000000  B-factor:1.000   
                 Charge=-0.241000000         Polarization=0.000000000  [A^3] (considered a charged atom and no polarization)  Interactions:  no
                 Anisotropic factor:    0.000 [-] (Relative), Radius:    1.000 [A], Framework-atom:  no
Pseudo Atom[  92] Name Lw       Oxidation: +0       Element: H    pdb-name: L    Scat. Types:   1   3 Mass=0.000000000  B-factor:1.000   
                 Charge=-0.241000000         Polarization=0.000000000  [A^3] (considered a charged atom and no polarization)  Interactions:  no
                 Anisotropic factor:    0.000 [-] (Relative), Radius:    1.000 [A], Framework-atom:  no
Pseudo Atom[  93] Name C_benz   Oxidation: +0       Element: C    pdb-name: C    Scat. Types:   7   6 Mass=12.000000000 B-factor:1.000   
                 Charge=-0.095000000         Polarization=0.000000000  [A^3] (considered a charged atom and no polarization)  Interactions: yes
                 Anisotropic factor:    0.000 [-] (Relative), Radius:    0.700 [A], Framework-atom:  no
Pseudo Atom[  94] Name H_benz   Oxidation: +0       Element: H    pdb-name: H    Scat. Types:   1   1 Mass=1.007940000  B-factor:1.000   
                 Charge=0.095000000          Polarization=0.000000000  [A^3] (considered a charged atom and no polarization)  Interactions: yes
                 Anisotropic factor:    0.000 [-] (Relative), Radius:    0.320 [A], Framework-atom:  no
Pseudo Atom[  95] Name N_dmf    Oxidation: +0       Element: N    pdb-name: N    Scat. Types:   8   7 Mass=14.006740000 B-factor:1.000   
                 Charge=-0.570000000         Polarization=0.000000000  [A^3] (considered a charged atom and no polarization)  Interactions: yes
                 Anisotropic factor:    0.000 [-] (Relative), Radius:    0.500 [A], Framework-atom:  no
Pseudo Atom[  96] Name Co_dmf   Oxidation: +0       Element: C    pdb-name: C    Scat. Types:   7   6 Mass=12.000000000 B-factor:1.000   
                 Charge=0.450000000          Polarization=0.000000000  [A^3] (considered a charged atom and no polarization)  Interactions: yes
                 Anisotropic factor:    0.000 [-] (Relative), Radius:    0.520 [A], Framework-atom:  no
Pseudo Atom[  97] Name Cm_dmf   Oxidation: +0       Element: C    pdb-name: C    Scat. Types:   7   6 Mass=12.000000000 B-factor:1.000   
                 Charge=0.280000000          Polarization=0.000000000  [A^3] (considered a charged atom and no polarization)  Interactions: yes
                 Anisotropic factor:    0.000 [-] (Relative), Radius:    0.520 [A], Framework-atom:  no
Pseudo Atom[  98] Name O_dmf    Oxidation: +0       Element: O    pdb-name: O    Scat. Types:   9   8 Mass=15.999400000 B-factor:1.000   
                 Charge=-0.500000000         Polarization=0.000000000  [A^3] (considered a charged atom and no polarization)  Interactions: yes
                 Anisotropic factor:    0.000 [-] (Relative), Radius:    0.780 [A], Framework-atom:  no
Pseudo Atom[  99] Name H_dmf    Oxidation: +0       Element: H    pdb-name: H    Scat. Types:   1   1 Mass=1.007940000  B-factor:1.000   
                 Charge=0.060000000          Polarization=0.000000000  [A^3] (considered a charged atom and no polarization)  Interactions: yes
                 Anisotropic factor:    0.000 [-] (Relative), Radius:    0.220 [A], Framework-atom:  no
Pseudo Atom[ 100] Name Na       Oxidation: +0       Element: Na   pdb-name: Na   Scat. Types:  12  11 Mass=22.989770000 B-factor:1.000   
                 Charge=1.000000000          Polarization=0.000000000  [A^3] (considered a charged atom and no polarization)  Interactions:  no
                 Anisotropic factor:    0.000 [-] (Relative), Radius:    1.000 [A], Framework-atom:  no
Pseudo Atom[ 101] Name Cl       Oxidation: +0       Element: Cl   pdb-name: Cl   Scat. Types:  18  17 Mass=22.989770000 B-factor:1.000   
                 Charge=-1.000000000         Polarization=0.000000000  [A^3] (considered a charged atom and no polarization)  Interactions:  no
                 Anisotropic factor:    0.000 [-] (Relative), Radius:    1.000 [A], Framework-atom:  no
Pseudo Atom[ 102] Name Kr       Oxidation: +0       Element: Kr   pdb-name: Kr   Scat. Types:  37  36 Mass=83.798000000 B-factor:1.000   
                 Charge=0.000000000          Polarization=0.000000000  [A^3] (considered a chargeless atom and no polarization)  Interactions: yes
                 Anisotropic factor:    0.000 [-] (Relative), Radius:    1.000 [A], Framework-atom:  no
Pseudo Atom[ 103] Name Xe       Oxidation: +0       Element: Xe   pdb-name: Xe   Scat. Types:  55  54 Mass=131.293000000 B-factor:1.000   
                 Charge=0.000000000          Polarization=0.000000000  [A^3] (considered a chargeless atom and no polarization)  Interactions: yes
                 Anisotropic factor:    0.000 [-] (Relative), Radius:    1.000 [A], Framework-atom:  no


Forcefield: Local
===========================================================================
Minimal distance: 1
CutOff VDW : 8.000000 (64.000000)
CutOff VDW switching on: 7.200000 (51.840000)
CutOff charge-charge : 12.000000 (144.000000)
CutOff charge-charge switching on: 7.800000 (60.840000)
CutOff charge-bonddipole : 12.000000 (144.000000)
CutOff charge-bondipole switching on: 8.400000 (70.560000)
CutOff bonddipole-bonddipole : 12.000000 (144.000000)
CutOff bonddipole-bondipole switching on: 9.000000 (81.000000)
Polarization is computed
Framework-Framework polarization is ommited
Adsorbate-Adsorbate polarization is ommited
Cation-Cation polarization is ommited
Adsorbate-Cation polarization is included
Back polarization is neglected
All potentials are shifted to zero at the Cutoff

General mixing rule: Lorentz-Berthelot mixing rules are used FIRST for cross terms
0 cross terms are overwritten using the individual mixing rules from the file 'force_field_mixing_rules.def'
and then 0 terms are overwritten using the specific interactions from the file 'force_field.def'

The force field and all the interactions:
     O1 -      O1 [LENNARD_JONES] p_0/k_B:  82.90800 [K], p_1: 3.54100 [A], shift/k_B:  -2.47510626 [K], tailcorrection: no
     O1 -      O2 [LENNARD_JONES] p_0/k_B:  82.90750 [K], p_1: 3.54100 [A], shift/k_B:  -2.47509134 [K], tailcorrection: no
     O1 -      O3 [LENNARD_JONES] p_0/k_B:  82.90900 [K], p_1: 3.54100 [A], shift/k_B:  -2.47513612 [K], tailcorrection: no
     O1 -      O4 [LENNARD_JONES] p_0/k_B:  82.90850 [K], p_1: 3.54100 [A], shift/k_B:  -2.47512119 [K], tailcorrection: no
     O1 -      O5 [LENNARD_JONES] p_0/k_B:  82.90850 [K], p_1: 3.54100 [A], shift/k_B:  -2.47512119 [K], tailcorrection: no
     O1 -      O6 [LENNARD_JONES] p_0/k_B:  82.91000 [K], p_1: 3.54100 [A], shift/k_B:  -2.47516597 [K], tailcorrection: no
     O1 -      O7 [LENNARD_JONES] p_0/k_B:  82.90850 [K], p_1: 3.54100 [A], shift/k_B:  -2.47512119 [K], tailcorrection: no
     O1 -      O8 [LENNARD_JONES] p_0/k_B:  82.90900 [K], p_1: 3.54100 [A], shift/k_B:  -2.47513612 [K], tailcorrection: no
     O1 -      O9 [LENNARD_JONES] p_0/k_B:  82.90900 [K], p_1: 3.54100 [A], shift/k_B:  -2.47513612 [K], tailcorrection: no
     O1 -     O10 [LENNARD_JONES] p_0/k_B:  82.90900 [K], p_1: 3.54100 [A], shift/k_B:  -2.47513612 [K], tailcorrection: no
     O1 -     O11 [LENNARD_JONES] p_0/k_B:  82.90850 [K], p_1: 3.54100 [A], shift/k_B:  -2.47512119 [K], tailcorrection: no
     O1 -     O12 [LENNARD_JONES] p_0/k_B:  82.90900 [K], p_1: 3.54100 [A], shift/k_B:  -2.47513612 [K], tailcorrection: no
     O1 -     O13 [LENNARD_JONES] p_0/k_B:  82.90900 [K], p_1: 3.54100 [A], shift/k_B:  -2.47513612 [K], tailcorrection: no
     O1 -     O14 [LENNARD_JONES] p_0/k_B:  82.90700 [K], p_1: 3.54100 [A], shift/k_B:  -2.47507641 [K], tailcorrection: no
     O1 -     O15 [LENNARD_JONES] p_0/k_B:  82.90800 [K], p_1: 3.54100 [A], shift/k_B:  -2.47510626 [K], tailcorrection: no
     O1 -     O16 [LENNARD_JONES] p_0/k_B:  82.90750 [K], p_1: 3.54100 [A], shift/k_B:  -2.47509134 [K], tailcorrection: no
     O1 -     O17 [LENNARD_JONES] p_0/k_B:  85.37043 [K], p_1: 3.58450 [A], shift/k_B:  -2.74075773 [K], tailcorrection: no
     O1 -     O18 [LENNARD_JONES] p_0/k_B:  85.37237 [K], p_1: 3.58450 [A], shift/k_B:  -2.74082009 [K], tailcorrection: no
     O1 -     O19 [LENNARD_JONES] p_0/k_B:  85.37917 [K], p_1: 3.58450 [A], shift/k_B:  -2.74103832 [K], tailcorrection: no
     O1 -     O20 [LENNARD_JONES] p_0/k_B:  85.36946 [K], p_1: 3.58450 [A], shift/k_B:  -2.74072655 [K], tailcorrection: no
     O1 -     C21 [LENNARD_JONES] p_0/k_B:  78.89960 [K], p_1: 3.53750 [A], shift/k_B:  -2.34161138 [K], tailcorrection: no
     O1 -     C22 [LENNARD_JONES] p_0/k_B:  78.90013 [K], p_1: 3.53750 [A], shift/k_B:  -2.34162697 [K], tailcorrection: no
     O1 -     C23 [LENNARD_JONES] p_0/k_B:  78.89960 [K], p_1: 3.53750 [A], shift/k_B:  -2.34161138 [K], tailcorrection: no
     O1 -     C24 [LENNARD_JONES] p_0/k_B:  78.89908 [K], p_1: 3.53750 [A], shift/k_B:  -2.34159578 [K], tailcorrection: no
     O1 -     C25 [LENNARD_JONES] p_0/k_B:  78.89855 [K], p_1: 3.53750 [A], shift/k_B:  -2.34158019 [K], tailcorrection: no
     O1 -     C26 [LENNARD_JONES] p_0/k_B:  78.89908 [K], p_1: 3.53750 [A], shift/k_B:  -2.34159578 [K], tailcorrection: no
     O1 -     C27 [LENNARD_JONES] p_0/k_B:  78.89908 [K], p_1: 3.53750 [A], shift/k_B:  -2.34159578 [K], tailcorrection: no
     O1 -     C28 [LENNARD_JONES] p_0/k_B:  78.89908 [K], p_1: 3.53750 [A], shift/k_B:  -2.34159578 [K], tailcorrection: no
     O1 -     C29 [LENNARD_JONES] p_0/k_B:  78.89855 [K], p_1: 3.53750 [A], shift/k_B:  -2.34158019 [K], tailcorrection: no
     O1 -     C30 [LENNARD_JONES] p_0/k_B:  78.89908 [K], p_1: 3.53750 [A], shift/k_B:  -2.34159578 [K], tailcorrection: no
     O1 -     C31 [LENNARD_JONES] p_0/k_B:  78.89855 [K], p_1: 3.53750 [A], shift/k_B:  -2.34158019 [K], tailcorrection: no
     O1 -     C32 [LENNARD_JONES] p_0/k_B:  78.89908 [K], p_1: 3.53750 [A], shift/k_B:  -2.34159578 [K], tailcorrection: no
     O1 -     C33 [LENNARD_JONES] p_0/k_B:  78.90013 [K], p_1: 3.53750 [A], shift/k_B:  -2.34162697 [K], tailcorrection: no
     O1 -     C34 [LENNARD_JONES] p_0/k_B:  78.90013 [K], p_1: 3.53750 [A], shift/k_B:  -2.34162697 [K], tailcorrection: no
     O1 -     C35 [LENNARD_JONES] p_0/k_B:  78.89960 [K], p_1: 3.53750 [A], shift/k_B:  -2.34161138 [K], tailcorrection: no
     O1 -     C36 [LENNARD_JONES] p_0/k_B:  78.89960 [K], p_1: 3.53750 [A], shift/k_B:  -2.34161138 [K], tailcorrection: no
     O1 -     C37 [LENNARD_JONES] p_0/k_B:  80.03782 [K], p_1: 3.52850 [A], shift/k_B:  -2.33962851 [K], tailcorrection: no
     O1 -     C38 [LENNARD_JONES] p_0/k_B:  70.92795 [K], p_1: 3.48200 [A], shift/k_B:  -1.91578748 [K], tailcorrection: no
     O1 -     C39 [LENNARD_JONES] p_0/k_B:  80.03730 [K], p_1: 3.52850 [A], shift/k_B:  -2.33961337 [K], tailcorrection: no
     O1 -     C40 [LENNARD_JONES] p_0/k_B:  70.92854 [K], p_1: 3.48200 [A], shift/k_B:  -1.91580326 [K], tailcorrection: no
     O1 -     C41 [LENNARD_JONES] p_0/k_B:  80.03989 [K], p_1: 3.52850 [A], shift/k_B:  -2.33968907 [K], tailcorrection: no
     O1 -     C42 [LENNARD_JONES] p_0/k_B:  70.92620 [K], p_1: 3.48200 [A], shift/k_B:  -1.91574012 [K], tailcorrection: no
     O1 -     C43 [LENNARD_JONES] p_0/k_B:  80.03834 [K], p_1: 3.52850 [A], shift/k_B:  -2.33964365 [K], tailcorrection: no
     O1 -     C44 [LENNARD_JONES] p_0/k_B:  70.92620 [K], p_1: 3.48200 [A], shift/k_B:  -1.91574012 [K], tailcorrection: no
     O1 -     C45 [LENNARD_JONES] p_0/k_B:  80.03834 [K], p_1: 3.52850 [A], shift/k_B:  -2.33964365 [K], tailcorrection: no
     O1 -     C46 [LENNARD_JONES] p_0/k_B:  70.92386 [K], p_1: 3.48200 [A], shift/k_B:  -1.91567697 [K], tailcorrection: no
     O1 -     C47 [LENNARD_JONES] p_0/k_B:  80.03937 [K], p_1: 3.52850 [A], shift/k_B:  -2.33967393 [K], tailcorrection: no
     O1 -     C48 [LENNARD_JONES] p_0/k_B:  70.92620 [K], p_1: 3.48200 [A], shift/k_B:  -1.91574012 [K], tailcorrection: no
     O1 -     C49 [LENNARD_JONES] p_0/k_B:  80.03782 [K], p_1: 3.52850 [A], shift/k_B:  -2.33962851 [K], tailcorrection: no
     O1 -     C50 [LENNARD_JONES] p_0/k_B:  70.92503 [K], p_1: 3.48200 [A], shift/k_B:  -1.91570854 [K], tailcorrection: no
     O1 -     C51 [LENNARD_JONES] p_0/k_B:  80.03937 [K], p_1: 3.52850 [A], shift/k_B:  -2.33967393 [K], tailcorrection: no
     O1 -     C52 [LENNARD_JONES] p_0/k_B:  70.92620 [K], p_1: 3.48200 [A], shift/k_B:  -1.91574012 [K], tailcorrection: no
     O1 -     H53 [LENNARD_JONES] p_0/k_B:  25.78448 [K], p_1: 3.23400 [A], shift/k_B:  -0.44814547 [K], tailcorrection: no
     O1 -     H54 [LENNARD_JONES] p_0/k_B:  25.78448 [K], p_1: 3.23400 [A], shift/k_B:  -0.44814547 [K], tailcorrection: no
     O1 -     H55 [LENNARD_JONES] p_0/k_B:  25.78448 [K], p_1: 3.23400 [A], shift/k_B:  -0.44814547 [K], tailcorrection: no
     O1 -     H56 [LENNARD_JONES] p_0/k_B:  25.78448 [K], p_1: 3.23400 [A], shift/k_B:  -0.44814547 [K], tailcorrection: no
     O1 -     H57 [LENNARD_JONES] p_0/k_B:  25.78448 [K], p_1: 3.23400 [A], shift/k_B:  -0.44814547 [K], tailcorrection: no
     O1 -     H58 [LENNARD_JONES] p_0/k_B:  25.78287 [K], p_1: 3.23400 [A], shift/k_B:  -0.44811753 [K], tailcorrection: no
     O1 -     H59 [LENNARD_JONES] p_0/k_B:  25.78448 [K], p_1: 3.23400 [A], shift/k_B:  -0.44814547 [K], tailcorrection: no
     O1 -     H60 [LENNARD_JONES] p_0/k_B:  25.78287 [K], p_1: 3.23400 [A], shift/k_B:  -0.44811753 [K], tailcorrection: no
     O1 -     H61 [LENNARD_JONES] p_0/k_B:  25.78448 [K], p_1: 3.23400 [A], shift/k_B:  -0.44814547 [K], tailcorrection: no
     O1 -     H62 [LENNARD_JONES] p_0/k_B:  25.78287 [K], p_1: 3.23400 [A], shift/k_B:  -0.44811753 [K], tailcorrection: no
     O1 -     H63 [LENNARD_JONES] p_0/k_B:  25.78448 [K], p_1: 3.23400 [A], shift/k_B:  -0.44814547 [K], tailcorrection: no
     O1 -     H64 [LENNARD_JONES] p_0/k_B:  25.78287 [K], p_1: 3.23400 [A], shift/k_B:  -0.44811753 [K], tailcorrection: no
     O1 -     H65 [LENNARD_JONES] p_0/k_B:  25.78448 [K], p_1: 3.23400 [A], shift/k_B:  -0.44814547 [K], tailcorrection: no
     O1 -     H66 [LENNARD_JONES] p_0/k_B:  25.78448 [K], p_1: 3.23400 [A], shift/k_B:  -0.44814547 [K], tailcorrection: no
     O1 -     H67 [LENNARD_JONES] p_0/k_B:  25.78448 [K], p_1: 3.23400 [A], shift/k_B:  -0.44814547 [K], tailcorrection: no
     O1 -     H68 [LENNARD_JONES] p_0/k_B:  25.78448 [K], p_1: 3.23400 [A], shift/k_B:  -0.44814547 [K], tailcorrection: no
     O1 -    Ga69 [LENNARD_JONES] p_0/k_B: 108.56733 [K], p_1: 3.67100 [A], shift/k_B:  -4.01653774 [K], tailcorrection: no
     O1 -    Ga70 [LENNARD_JONES] p_0/k_B: 108.57229 [K], p_1: 3.67100 [A], shift/k_B:  -4.01672137 [K], tailcorrection: no
     O1 -    Ga71 [LENNARD_JONES] p_0/k_B: 108.56809 [K], p_1: 3.67100 [A], shift/k_B:  -4.01656599 [K], tailcorrection: no
     O1 -    Ga72 [LENNARD_JONES] p_0/k_B: 108.57267 [K], p_1: 3.67100 [A], shift/k_B:  -4.01673550 [K], tailcorrection: no
     O1 -      He [LENNARD_JONES] p_0/k_B:  30.06156 [K], p_1: 3.09050 [A], shift/k_B:  -0.39834385 [K], tailcorrection: no
     O1 - CH4_sp3 [LENNARD_JONES] p_0/k_B: 114.63384 [K], p_1: 3.63050 [A], shift/k_B:  -3.97028221 [K], tailcorrection: no
     O1 - CH3_sp3 [LENNARD_JONES] p_0/k_B:  94.62592 [K], p_1: 3.65050 [A], shift/k_B:  -3.38614713 [K], tailcorrection: no
     O1 - CH2_sp3 [LENNARD_JONES] p_0/k_B:  68.13845 [K], p_1: 3.75050 [A], shift/k_B:  -2.86293730 [K], tailcorrection: no
     O1 -  CH_sp3 [LENNARD_JONES] p_0/k_B:  37.54246 [K], p_1: 4.10550 [A], shift/k_B:  -2.69297722 [K], tailcorrection: no
     O1 -   C_sp3 [LENNARD_JONES] p_0/k_B:   8.14410 [K], p_1: 4.96050 [A], shift/k_B:  -1.74623974 [K], tailcorrection: no
     O1 -   H_com [LENNARD_JONES] p_0/k_B:  55.16089 [K], p_1: 3.24950 [A], shift/k_B:  -0.98649681 [K], tailcorrection: no
     O1 -   C_co2 [LENNARD_JONES] p_0/k_B:  47.31296 [K], p_1: 3.17050 [A], shift/k_B:  -0.73043358 [K], tailcorrection: no
     O1 -   O_co2 [LENNARD_JONES] p_0/k_B:  80.93041 [K], p_1: 3.29550 [A], shift/k_B:  -1.57410028 [K], tailcorrection: no
     O1 -    N_n2 [LENNARD_JONES] p_0/k_B:  54.63230 [K], p_1: 3.42550 [A], shift/k_B:  -1.33853108 [K], tailcorrection: no
     O1 -      Ar [LENNARD_JONES] p_0/k_B:  99.66132 [K], p_1: 3.44050 [A], shift/k_B:  -2.50622244 [K], tailcorrection: no
     O1 -      Ow [LENNARD_JONES] p_0/k_B:  86.20495 [K], p_1: 3.31900 [A], shift/k_B:  -1.74934530 [K], tailcorrection: no
     O1 -  C_benz [LENNARD_JONES] p_0/k_B:  50.45072 [K], p_1: 3.57050 [A], shift/k_B:  -1.58239718 [K], tailcorrection: no
     O1 -  H_benz [LENNARD_JONES] p_0/k_B:  45.93483 [K], p_1: 2.95050 [A], shift/k_B:  -0.46125546 [K], tailcorrection: no
     O1 -   N_dmf [LENNARD_JONES] p_0/k_B:  81.44102 [K], p_1: 3.37050 [A], shift/k_B:  -1.81173031 [K], tailcorrection: no
     O1 -  Co_dmf [LENNARD_JONES] p_0/k_B:  64.38478 [K], p_1: 3.62050 [A], shift/k_B:  -2.19364941 [K], tailcorrection: no
     O1 -  Cm_dmf [LENNARD_JONES] p_0/k_B:  81.44102 [K], p_1: 3.67050 [A], shift/k_B:  -3.01053947 [K], tailcorrection: no
     O1 -   O_dmf [LENNARD_JONES] p_0/k_B:  91.05383 [K], p_1: 3.25050 [A], shift/k_B:  -1.63140131 [K], tailcorrection: no
     O1 -   H_dmf [LENNARD_JONES] p_0/k_B:  25.75391 [K], p_1: 2.87050 [A], shift/k_B:  -0.21937180 [K], tailcorrection: no
     O1 -      Kr [LENNARD_JONES] p_0/k_B: 117.45591 [K], p_1: 3.58850 [A], shift/k_B:  -3.79594977 [K], tailcorrection: no
     O1 -      Xe [LENNARD_JONES] p_0/k_B: 135.36125 [K], p_1: 3.82050 [A], shift/k_B:  -6.34677306 [K], tailcorrection: no
     O2 -      O2 [LENNARD_JONES] p_0/k_B:  82.90700 [K], p_1: 3.54100 [A], shift/k_B:  -2.47507641 [K], tailcorrection: no
     O2 -      O3 [LENNARD_JONES] p_0/k_B:  82.90850 [K], p_1: 3.54100 [A], shift/k_B:  -2.47512119 [K], tailcorrection: no
     O2 -      O4 [LENNARD_JONES] p_0/k_B:  82.90800 [K], p_1: 3.54100 [A], shift/k_B:  -2.47510626 [K], tailcorrection: no
     O2 -      O5 [LENNARD_JONES] p_0/k_B:  82.90800 [K], p_1: 3.54100 [A], shift/k_B:  -2.47510626 [K], tailcorrection: no
     O2 -      O6 [LENNARD_JONES] p_0/k_B:  82.90950 [K], p_1: 3.54100 [A], shift/k_B:  -2.47515104 [K], tailcorrection: no
     O2 -      O7 [LENNARD_JONES] p_0/k_B:  82.90800 [K], p_1: 3.54100 [A], shift/k_B:  -2.47510626 [K], tailcorrection: no
     O2 -      O8 [LENNARD_JONES] p_0/k_B:  82.90850 [K], p_1: 3.54100 [A], shift/k_B:  -2.47512119 [K], tailcorrection: no
     O2 -      O9 [LENNARD_JONES] p_0/k_B:  82.90850 [K], p_1: 3.54100 [A], shift/k_B:  -2.47512119 [K], tailcorrection: no
     O2 -     O10 [LENNARD_JONES] p_0/k_B:  82.90850 [K], p_1: 3.54100 [A], shift/k_B:  -2.47512119 [K], tailcorrection: no
     O2 -     O11 [LENNARD_JONES] p_0/k_B:  82.90800 [K], p_1: 3.54100 [A], shift/k_B:  -2.47510626 [K], tailcorrection: no
     O2 -     O12 [LENNARD_JONES] p_0/k_B:  82.90850 [K], p_1: 3.54100 [A], shift/k_B:  -2.47512119 [K], tailcorrection: no
     O2 -     O13 [LENNARD_JONES] p_0/k_B:  82.90850 [K], p_1: 3.54100 [A], shift/k_B:  -2.47512119 [K], tailcorrection: no
     O2 -     O14 [LENNARD_JONES] p_0/k_B:  82.90650 [K], p_1: 3.54100 [A], shift/k_B:  -2.47506148 [K], tailcorrection: no
     O2 -     O15 [LENNARD_JONES] p_0/k_B:  82.90750 [K], p_1: 3.54100 [A], shift/k_B:  -2.47509134 [K], tailcorrection: no
     O2 -     O16 [LENNARD_JONES] p_0/k_B:  82.90700 [K], p_1: 3.54100 [A], shift/k_B:  -2.47507641 [K], tailcorrection: no
     O2 -     O17 [LENNARD_JONES] p_0/k_B:  85.36992 [K], p_1: 3.58450 [A], shift/k_B:  -2.74074120 [K], tailcorrection: no
     O2 -     O18 [LENNARD_JONES] p_0/k_B:  85.37186 [K], p_1: 3.58450 [A], shift/k_B:  -2.74080356 [K], tailcorrection: no
     O2 -     O19 [LENNARD_JONES] p_0/k_B:  85.37866 [K], p_1: 3.58450 [A], shift/k_B:  -2.74102179 [K], tailcorrection: no
     O2 -     O20 [LENNARD_JONES] p_0/k_B:  85.36895 [K], p_1: 3.58450 [A], shift/k_B:  -2.74071002 [K], tailcorrection: no
     O2 -     C21 [LENNARD_JONES] p_0/k_B:  78.89913 [K], p_1: 3.53750 [A], shift/k_B:  -2.34159726 [K], tailcorrection: no
     O2 -     C22 [LENNARD_JONES] p_0/k_B:  78.89965 [K], p_1: 3.53750 [A], shift/k_B:  -2.34161285 [K], tailcorrection: no
     O2 -     C23 [LENNARD_JONES] p_0/k_B:  78.89913 [K], p_1: 3.53750 [A], shift/k_B:  -2.34159726 [K], tailcorrection: no
     O2 -     C24 [LENNARD_JONES] p_0/k_B:  78.89860 [K], p_1: 3.53750 [A], shift/k_B:  -2.34158166 [K], tailcorrection: no
     O2 -     C25 [LENNARD_JONES] p_0/k_B:  78.89808 [K], p_1: 3.53750 [A], shift/k_B:  -2.34156607 [K], tailcorrection: no
     O2 -     C26 [LENNARD_JONES] p_0/k_B:  78.89860 [K], p_1: 3.53750 [A], shift/k_B:  -2.34158166 [K], tailcorrection: no
     O2 -     C27 [LENNARD_JONES] p_0/k_B:  78.89860 [K], p_1: 3.53750 [A], shift/k_B:  -2.34158166 [K], tailcorrection: no
     O2 -     C28 [LENNARD_JONES] p_0/k_B:  78.89860 [K], p_1: 3.53750 [A], shift/k_B:  -2.34158166 [K], tailcorrection: no
     O2 -     C29 [LENNARD_JONES] p_0/k_B:  78.89808 [K], p_1: 3.53750 [A], shift/k_B:  -2.34156607 [K], tailcorrection: no
     O2 -     C30 [LENNARD_JONES] p_0/k_B:  78.89860 [K], p_1: 3.53750 [A], shift/k_B:  -2.34158166 [K], tailcorrection: no
     O2 -     C31 [LENNARD_JONES] p_0/k_B:  78.89808 [K], p_1: 3.53750 [A], shift/k_B:  -2.34156607 [K], tailcorrection: no
     O2 -     C32 [LENNARD_JONES] p_0/k_B:  78.89860 [K], p_1: 3.53750 [A], shift/k_B:  -2.34158166 [K], tailcorrection: no
     O2 -     C33 [LENNARD_JONES] p_0/k_B:  78.89965 [K], p_1: 3.53750 [A], shift/k_B:  -2.34161285 [K], tailcorrection: no
     O2 -     C34 [LENNARD_JONES] p_0/k_B:  78.89965 [K], p_1: 3.53750 [A], shift/k_B:  -2.34161285 [K], tailcorrection: no
     O2 -     C35 [LENNARD_JONES] p_0/k_B:  78.89913 [K], p_1: 3.53750 [A], shift/k_B:  -2.34159726 [K], tailcorrection: no
     O2 -     C36 [LENNARD_JONES] p_0/k_B:  78.89913 [K], p_1: 3.53750 [A], shift/k_B:  -2.34159726 [K], tailcorrection: no
     O2 -     C37 [LENNARD_JONES] p_0/k_B:  80.03734 [K], p_1: 3.52850 [A], shift/k_B:  -2.33961440 [K], tailcorrection: no
     O2 -     C38 [LENNARD_JONES] p_0/k_B:  70.92753 [K], p_1: 3.48200 [A], shift/k_B:  -1.91577592 [K], tailcorrection: no
     O2 -     C39 [LENNARD_JONES] p_0/k_B:  80.03682 [K], p_1: 3.52850 [A], shift/k_B:  -2.33959926 [K], tailcorrection: no
     O2 -     C40 [LENNARD_JONES] p_0/k_B:  70.92811 [K], p_1: 3.48200 [A], shift/k_B:  -1.91579171 [K], tailcorrection: no
     O2 -     C41 [LENNARD_JONES] p_0/k_B:  80.03941 [K], p_1: 3.52850 [A], shift/k_B:  -2.33967496 [K], tailcorrection: no
     O2 -     C42 [LENNARD_JONES] p_0/k_B:  70.92577 [K], p_1: 3.48200 [A], shift/k_B:  -1.91572856 [K], tailcorrection: no
     O2 -     C43 [LENNARD_JONES] p_0/k_B:  80.03785 [K], p_1: 3.52850 [A], shift/k_B:  -2.33962954 [K], tailcorrection: no
     O2 -     C44 [LENNARD_JONES] p_0/k_B:  70.92577 [K], p_1: 3.48200 [A], shift/k_B:  -1.91572856 [K], tailcorrection: no
     O2 -     C45 [LENNARD_JONES] p_0/k_B:  80.03785 [K], p_1: 3.52850 [A], shift/k_B:  -2.33962954 [K], tailcorrection: no
     O2 -     C46 [LENNARD_JONES] p_0/k_B:  70.92343 [K], p_1: 3.48200 [A], shift/k_B:  -1.91566542 [K], tailcorrection: no
     O2 -     C47 [LENNARD_JONES] p_0/k_B:  80.03889 [K], p_1: 3.52850 [A], shift/k_B:  -2.33965982 [K], tailcorrection: no
     O2 -     C48 [LENNARD_JONES] p_0/k_B:  70.92577 [K], p_1: 3.48200 [A], shift/k_B:  -1.91572856 [K], tailcorrection: no
     O2 -     C49 [LENNARD_JONES] p_0/k_B:  80.03734 [K], p_1: 3.52850 [A], shift/k_B:  -2.33961440 [K], tailcorrection: no
     O2 -     C50 [LENNARD_JONES] p_0/k_B:  70.92460 [K], p_1: 3.48200 [A], shift/k_B:  -1.91569699 [K], tailcorrection: no
     O2 -     C51 [LENNARD_JONES] p_0/k_B:  80.03889 [K], p_1: 3.52850 [A], shift/k_B:  -2.33965982 [K], tailcorrection: no
     O2 -     C52 [LENNARD_JONES] p_0/k_B:  70.92577 [K], p_1: 3.48200 [A], shift/k_B:  -1.91572856 [K], tailcorrection: no
     O2 -     H53 [LENNARD_JONES] p_0/k_B:  25.78432 [K], p_1: 3.23400 [A], shift/k_B:  -0.44814277 [K], tailcorrection: no
     O2 -     H54 [LENNARD_JONES] p_0/k_B:  25.78432 [K], p_1: 3.23400 [A], shift/k_B:  -0.44814277 [K], tailcorrection: no
     O2 -     H55 [LENNARD_JONES] p_0/k_B:  25.78432 [K], p_1: 3.23400 [A], shift/k_B:  -0.44814277 [K], tailcorrection: no
     O2 -     H56 [LENNARD_JONES] p_0/k_B:  25.78432 [K], p_1: 3.23400 [A], shift/k_B:  -0.44814277 [K], tailcorrection: no
     O2 -     H57 [LENNARD_JONES] p_0/k_B:  25.78432 [K], p_1: 3.23400 [A], shift/k_B:  -0.44814277 [K], tailcorrection: no
     O2 -     H58 [LENNARD_JONES] p_0/k_B:  25.78271 [K], p_1: 3.23400 [A], shift/k_B:  -0.44811483 [K], tailcorrection: no
     O2 -     H59 [LENNARD_JONES] p_0/k_B:  25.78432 [K], p_1: 3.23400 [A], shift/k_B:  -0.44814277 [K], tailcorrection: no
     O2 -     H60 [LENNARD_JONES] p_0/k_B:  25.78271 [K], p_1: 3.23400 [A], shift/k_B:  -0.44811483 [K], tailcorrection: no
     O2 -     H61 [LENNARD_JONES] p_0/k_B:  25.78432 [K], p_1: 3.23400 [A], shift/k_B:  -0.44814277 [K], tailcorrection: no
     O2 -     H62 [LENNARD_JONES] p_0/k_B:  25.78271 [K], p_1: 3.23400 [A], shift/k_B:  -0.44811483 [K], tailcorrection: no
     O2 -     H63 [LENNARD_JONES] p_0/k_B:  25.78432 [K], p_1: 3.23400 [A], shift/k_B:  -0.44814277 [K], tailcorrection: no
     O2 -     H64 [LENNARD_JONES] p_0/k_B:  25.78271 [K], p_1: 3.23400 [A], shift/k_B:  -0.44811483 [K], tailcorrection: no
     O2 -     H65 [LENNARD_JONES] p_0/k_B:  25.78432 [K], p_1: 3.23400 [A], shift/k_B:  -0.44814277 [K], tailcorrection: no
     O2 -     H66 [LENNARD_JONES] p_0/k_B:  25.78432 [K], p_1: 3.23400 [A], shift/k_B:  -0.44814277 [K], tailcorrection: no
     O2 -     H67 [LENNARD_JONES] p_0/k_B:  25.78432 [K], p_1: 3.23400 [A], shift/k_B:  -0.44814277 [K], tailcorrection: no
     O2 -     H68 [LENNARD_JONES] p_0/k_B:  25.78432 [K], p_1: 3.23400 [A], shift/k_B:  -0.44814277 [K], tailcorrection: no
     O2 -    Ga69 [LENNARD_JONES] p_0/k_B: 108.56667 [K], p_1: 3.67100 [A], shift/k_B:  -4.01651352 [K], tailcorrection: no
     O2 -    Ga70 [LENNARD_JONES] p_0/k_B: 108.57164 [K], p_1: 3.67100 [A], shift/k_B:  -4.01669715 [K], tailcorrection: no
     O2 -    Ga71 [LENNARD_JONES] p_0/k_B: 108.56744 [K], p_1: 3.67100 [A], shift/k_B:  -4.01654177 [K], tailcorrection: no
     O2 -    Ga72 [LENNARD_JONES] p_0/k_B: 108.57202 [K], p_1: 3.67100 [A], shift/k_B:  -4.01671127 [K], tailcorrection: no
     O2 -      He [LENNARD_JONES] p_0/k_B:  30.06138 [K], p_1: 3.09050 [A], shift/k_B:  -0.39834145 [K], tailcorrection: no
     O2 - CH4_sp3 [LENNARD_JONES] p_0/k_B: 114.63315 [K], p_1: 3.63050 [A], shift/k_B:  -3.97025826 [K], tailcorrection: no
     O2 - CH3_sp3 [LENNARD_JONES] p_0/k_B:  94.62535 [K], p_1: 3.65050 [A], shift/k_B:  -3.38612671 [K], tailcorrection: no
     O2 - CH2_sp3 [LENNARD_JONES] p_0/k_B:  68.13804 [K], p_1: 3.75050 [A], shift/k_B:  -2.86292004 [K], tailcorrection: no
     O2 -  CH_sp3 [LENNARD_JONES] p_0/k_B:  37.54223 [K], p_1: 4.10550 [A], shift/k_B:  -2.69296097 [K], tailcorrection: no
     O2 -   C_sp3 [LENNARD_JONES] p_0/k_B:   8.14405 [K], p_1: 4.96050 [A], shift/k_B:  -1.74622921 [K], tailcorrection: no
     O2 -   H_com [LENNARD_JONES] p_0/k_B:  55.16056 [K], p_1: 3.24950 [A], shift/k_B:  -0.98649086 [K], tailcorrection: no
     O2 -   C_co2 [LENNARD_JONES] p_0/k_B:  47.31267 [K], p_1: 3.17050 [A], shift/k_B:  -0.73042918 [K], tailcorrection: no
     O2 -   O_co2 [LENNARD_JONES] p_0/k_B:  80.92993 [K], p_1: 3.29550 [A], shift/k_B:  -1.57409079 [K], tailcorrection: no
     O2 -    N_n2 [LENNARD_JONES] p_0/k_B:  54.63197 [K], p_1: 3.42550 [A], shift/k_B:  -1.33852300 [K], tailcorrection: no
     O2 -      Ar [LENNARD_JONES] p_0/k_B:  99.66072 [K], p_1: 3.44050 [A], shift/k_B:  -2.50620732 [K], tailcorrection: no
     O2 -      Ow [LENNARD_JONES] p_0/k_B:  86.20443 [K], p_1: 3.31900 [A], shift/k_B:  -1.74933475 [K], tailcorrection: no
     O2 -  C_benz [LENNARD_JONES] p_0/k_B:  50.45042 [K], p_1: 3.57050 [A], shift/k_B:  -1.58238764 [K], tailcorrection: no
     O2 -  H_benz [LENNARD_JONES] p_0/k_B:  45.93455 [K], p_1: 2.95050 [A], shift/k_B:  -0.46125268 [K], tailcorrection: no
     O2 -   N_dmf [LENNARD_JONES] p_0/k_B:  81.44053 [K], p_1: 3.37050 [A], shift/k_B:  -1.81171938 [K], tailcorrection: no
     O2 -  Co_dmf [LENNARD_JONES] p_0/k_B:  64.38439 [K], p_1: 3.62050 [A], shift/k_B:  -2.19363618 [K], tailcorrection: no
     O2 -  Cm_dmf [LENNARD_JONES] p_0/k_B:  81.44053 [K], p_1: 3.67050 [A], shift/k_B:  -3.01052131 [K], tailcorrection: no
     O2 -   O_dmf [LENNARD_JONES] p_0/k_B:  91.05328 [K], p_1: 3.25050 [A], shift/k_B:  -1.63139148 [K], tailcorrection: no
     O2 -   H_dmf [LENNARD_JONES] p_0/k_B:  25.75376 [K], p_1: 2.87050 [A], shift/k_B:  -0.21937047 [K], tailcorrection: no
     O2 -      Kr [LENNARD_JONES] p_0/k_B: 117.45520 [K], p_1: 3.58850 [A], shift/k_B:  -3.79592687 [K], tailcorrection: no
     O2 -      Xe [LENNARD_JONES] p_0/k_B: 135.36043 [K], p_1: 3.82050 [A], shift/k_B:  -6.34673479 [K], tailcorrection: no
     O3 -      O3 [LENNARD_JONES] p_0/k_B:  82.91000 [K], p_1: 3.54100 [A], shift/k_B:  -2.47516597 [K], tailcorrection: no
     O3 -      O4 [LENNARD_JONES] p_0/k_B:  82.90950 [K], p_1: 3.54100 [A], shift/k_B:  -2.47515104 [K], tailcorrection: no
     O3 -      O5 [LENNARD_JONES] p_0/k_B:  82.90950 [K], p_1: 3.54100 [A], shift/k_B:  -2.47515104 [K], tailcorrection: no
     O3 -      O6 [LENNARD_JONES] p_0/k_B:  82.91100 [K], p_1: 3.54100 [A], shift/k_B:  -2.47519582 [K], tailcorrection: no
     O3 -      O7 [LENNARD_JONES] p_0/k_B:  82.90950 [K], p_1: 3.54100 [A], shift/k_B:  -2.47515104 [K], tailcorrection: no
     O3 -      O8 [LENNARD_JONES] p_0/k_B:  82.91000 [K], p_1: 3.54100 [A], shift/k_B:  -2.47516597 [K], tailcorrection: no
     O3 -      O9 [LENNARD_JONES] p_0/k_B:  82.91000 [K], p_1: 3.54100 [A], shift/k_B:  -2.47516597 [K], tailcorrection: no
     O3 -     O10 [LENNARD_JONES] p_0/k_B:  82.91000 [K], p_1: 3.54100 [A], shift/k_B:  -2.47516597 [K], tailcorrection: no
     O3 -     O11 [LENNARD_JONES] p_0/k_B:  82.90950 [K], p_1: 3.54100 [A], shift/k_B:  -2.47515104 [K], tailcorrection: no
     O3 -     O12 [LENNARD_JONES] p_0/k_B:  82.91000 [K], p_1: 3.54100 [A], shift/k_B:  -2.47516597 [K], tailcorrection: no
     O3 -     O13 [LENNARD_JONES] p_0/k_B:  82.91000 [K], p_1: 3.54100 [A], shift/k_B:  -2.47516597 [K], tailcorrection: no
     O3 -     O14 [LENNARD_JONES] p_0/k_B:  82.90800 [K], p_1: 3.54100 [A], shift/k_B:  -2.47510626 [K], tailcorrection: no
     O3 -     O15 [LENNARD_JONES] p_0/k_B:  82.90900 [K], p_1: 3.54100 [A], shift/k_B:  -2.47513612 [K], tailcorrection: no
     O3 -     O16 [LENNARD_JONES] p_0/k_B:  82.90850 [K], p_1: 3.54100 [A], shift/k_B:  -2.47512119 [K], tailcorrection: no
     O3 -     O17 [LENNARD_JONES] p_0/k_B:  85.37146 [K], p_1: 3.58450 [A], shift/k_B:  -2.74079079 [K], tailcorrection: no
     O3 -     O18 [LENNARD_JONES] p_0/k_B:  85.37340 [K], p_1: 3.58450 [A], shift/k_B:  -2.74085314 [K], tailcorrection: no
     O3 -     O19 [LENNARD_JONES] p_0/k_B:  85.38020 [K], p_1: 3.58450 [A], shift/k_B:  -2.74107138 [K], tailcorrection: no
     O3 -     O20 [LENNARD_JONES] p_0/k_B:  85.37049 [K], p_1: 3.58450 [A], shift/k_B:  -2.74075961 [K], tailcorrection: no
     O3 -     C21 [LENNARD_JONES] p_0/k_B:  78.90055 [K], p_1: 3.53750 [A], shift/k_B:  -2.34163962 [K], tailcorrection: no
     O3 -     C22 [LENNARD_JONES] p_0/k_B:  78.90108 [K], p_1: 3.53750 [A], shift/k_B:  -2.34165521 [K], tailcorrection: no
     O3 -     C23 [LENNARD_JONES] p_0/k_B:  78.90055 [K], p_1: 3.53750 [A], shift/k_B:  -2.34163962 [K], tailcorrection: no
     O3 -     C24 [LENNARD_JONES] p_0/k_B:  78.90003 [K], p_1: 3.53750 [A], shift/k_B:  -2.34162403 [K], tailcorrection: no
     O3 -     C25 [LENNARD_JONES] p_0/k_B:  78.89950 [K], p_1: 3.53750 [A], shift/k_B:  -2.34160843 [K], tailcorrection: no
     O3 -     C26 [LENNARD_JONES] p_0/k_B:  78.90003 [K], p_1: 3.53750 [A], shift/k_B:  -2.34162403 [K], tailcorrection: no
     O3 -     C27 [LENNARD_JONES] p_0/k_B:  78.90003 [K], p_1: 3.53750 [A], shift/k_B:  -2.34162403 [K], tailcorrection: no
     O3 -     C28 [LENNARD_JONES] p_0/k_B:  78.90003 [K], p_1: 3.53750 [A], shift/k_B:  -2.34162403 [K], tailcorrection: no
     O3 -     C29 [LENNARD_JONES] p_0/k_B:  78.89950 [K], p_1: 3.53750 [A], shift/k_B:  -2.34160843 [K], tailcorrection: no
     O3 -     C30 [LENNARD_JONES] p_0/k_B:  78.90003 [K], p_1: 3.53750 [A], shift/k_B:  -2.34162403 [K], tailcorrection: no
     O3 -     C31 [LENNARD_JONES] p_0/k_B:  78.89950 [K], p_1: 3.53750 [A], shift/k_B:  -2.34160843 [K], tailcorrection: no
     O3 -     C32 [LENNARD_JONES] p_0/k_B:  78.90003 [K], p_1: 3.53750 [A], shift/k_B:  -2.34162403 [K], tailcorrection: no
     O3 -     C33 [LENNARD_JONES] p_0/k_B:  78.90108 [K], p_1: 3.53750 [A], shift/k_B:  -2.34165521 [K], tailcorrection: no
     O3 -     C34 [LENNARD_JONES] p_0/k_B:  78.90108 [K], p_1: 3.53750 [A], shift/k_B:  -2.34165521 [K], tailcorrection: no
     O3 -     C35 [LENNARD_JONES] p_0/k_B:  78.90055 [K], p_1: 3.53750 [A], shift/k_B:  -2.34163962 [K], tailcorrection: no
     O3 -     C36 [LENNARD_JONES] p_0/k_B:  78.90055 [K], p_1: 3.53750 [A], shift/k_B:  -2.34163962 [K], tailcorrection: no
     O3 -     C37 [LENNARD_JONES] p_0/k_B:  80.03878 [K], p_1: 3.52850 [A], shift/k_B:  -2.33965673 [K], tailcorrection: no
[...]

Average Cation Improper Torsion energy:
=======================================
	Block[ 0]            0.00000 [K]
	Block[ 1]            0.00000 [K]
	Block[ 2]            0.00000 [K]
	Block[ 3]            0.00000 [K]
	Block[ 4]            0.00000 [K]
	------------------------------------------------------------------------------
	Average              0.00000 [K] +/-            0.00000 [K]

Average Cation Bond-Bond cross term energy:
=================================================
	Block[ 0]            0.00000 [K]
	Block[ 1]            0.00000 [K]
	Block[ 2]            0.00000 [K]
	Block[ 3]            0.00000 [K]
	Block[ 4]            0.00000 [K]
	------------------------------------------------------------------------------
	Average              0.00000 [K] +/-            0.00000 [K]

Average Cation Bend-Bend cross term energy:
===========================================
	Block[ 0]            0.00000 [K]
	Block[ 1]            0.00000 [K]
	Block[ 2]            0.00000 [K]
	Block[ 3]            0.00000 [K]
	Block[ 4]            0.00000 [K]
	------------------------------------------------------------------------------
	Average              0.00000 [K] +/-            0.00000 [K]

Average Cation Bond-Bend cross term energy:
==============================================
	Block[ 0]            0.00000 [K]
	Block[ 1]            0.00000 [K]
	Block[ 2]            0.00000 [K]
	Block[ 3]            0.00000 [K]
	Block[ 4]            0.00000 [K]
	------------------------------------------------------------------------------
	Average              0.00000 [K] +/-            0.00000 [K]

Average Cation Bond-Torsion cross term energy:
==============================================
	Block[ 0]            0.00000 [K]
	Block[ 1]            0.00000 [K]
	Block[ 2]            0.00000 [K]
	Block[ 3]            0.00000 [K]
	Block[ 4]            0.00000 [K]
	------------------------------------------------------------------------------
	Average              0.00000 [K] +/-            0.00000 [K]

Average Cation Bend-Torsion cross term energy:
==============================================
	Block[ 0]            0.00000 [K]
	Block[ 1]            0.00000 [K]
	Block[ 2]            0.00000 [K]
	Block[ 3]            0.00000 [K]
	Block[ 4]            0.00000 [K]
	------------------------------------------------------------------------------
	Average              0.00000 [K] +/-            0.00000 [K]

Average Cation Intra Van der Waals energy:
==========================================
	Block[ 0]            0.00000 [K]
	Block[ 1]            0.00000 [K]
	Block[ 2]            0.00000 [K]
	Block[ 3]            0.00000 [K]
	Block[ 4]            0.00000 [K]
	------------------------------------------------------------------------------
	Average              0.00000 [K] +/-            0.00000 [K]

Average Cation Intra charge-charge Coulomb energy:
====================================
	Block[ 0]            0.00000 [K]
	Block[ 1]            0.00000 [K]
	Block[ 2]            0.00000 [K]
	Block[ 3]            0.00000 [K]
	Block[ 4]            0.00000 [K]
	------------------------------------------------------------------------------
	Average              0.00000 [K] +/-            0.00000 [K]

Average Cation Intra charge-bonddipole Coulomb energy:
====================================
	Block[ 0]            0.00000 [K]
	Block[ 1]            0.00000 [K]
	Block[ 2]            0.00000 [K]
	Block[ 3]            0.00000 [K]
	Block[ 4]            0.00000 [K]
	------------------------------------------------------------------------------
	Average              0.00000 [K] +/-            0.00000 [K]

Average Cation Intra bonddipole-bonddipole Coulomb energy:
====================================
	Block[ 0]            0.00000 [K]
	Block[ 1]            0.00000 [K]
	Block[ 2]            0.00000 [K]
	Block[ 3]            0.00000 [K]
	Block[ 4]            0.00000 [K]
	------------------------------------------------------------------------------
	Average              0.00000 [K] +/-            0.00000 [K]

Average Host-Host energy:
=========================
	Block[ 0] 0.00000            Van der Waals: 0.00000            Coulomb: 0.00000            [K]
	Block[ 1] 0.00000            Van der Waals: 0.00000            Coulomb: 0.00000            [K]
	Block[ 2] 0.00000            Van der Waals: 0.00000            Coulomb: 0.00000            [K]
	Block[ 3] 0.00000            Van der Waals: 0.00000            Coulomb: 0.00000            [K]
	Block[ 4] 0.00000            Van der Waals: 0.00000            Coulomb: 0.00000            [K]
	------------------------------------------------------------------------------
	Average   0.00000            Van der Waals: 0.000000           Coulomb: 0.00000            [K]
	      +/- 0.00000                       +/- 0.000000                +/- 0.00000            [K]

Average Adsorbate-Adsorbate energy:
===================================
	Block[ 0] 0.00000            Van der Waals: 0.00000            Coulomb: 0.00000            [K]
	Block[ 1] 0.00000            Van der Waals: 0.00000            Coulomb: 0.00000            [K]
	Block[ 2] 0.00000            Van der Waals: 0.00000            Coulomb: 0.00000            [K]
	Block[ 3] 0.00000            Van der Waals: 0.00000            Coulomb: 0.00000            [K]
	Block[ 4] 0.00000            Van der Waals: 0.00000            Coulomb: 0.00000            [K]
	------------------------------------------------------------------------------
	Average   0.00000            Van der Waals: 0.000000           Coulomb: 0.00000            [K]
	      +/- 0.00000                       +/- 0.000000                +/- 0.00000            [K]

Average Cation-Cation energy:
=============================
	Block[ 0] 0.00000            Van der Waals: 0.00000            Coulomb: 0.00000            [K]
	Block[ 1] 0.00000            Van der Waals: 0.00000            Coulomb: 0.00000            [K]
	Block[ 2] 0.00000            Van der Waals: 0.00000            Coulomb: 0.00000            [K]
	Block[ 3] 0.00000            Van der Waals: 0.00000            Coulomb: 0.00000            [K]
	Block[ 4] 0.00000            Van der Waals: 0.00000            Coulomb: 0.00000            [K]
	------------------------------------------------------------------------------
	Average   0.00000            Van der Waals: 0.000000           Coulomb: 0.00000            [K]
	      +/- 0.00000                       +/- 0.000000                +/- 0.00000            [K]

Average Host-Adsorbate energy:
==============================
	Block[ 0] 0.00000            Van der Waals: 0.00000            Coulomb: 0.00000            [K]
	Block[ 1] 0.00000            Van der Waals: 0.00000            Coulomb: 0.00000            [K]
	Block[ 2] 0.00000            Van der Waals: 0.00000            Coulomb: 0.00000            [K]
	Block[ 3] 0.00000            Van der Waals: 0.00000            Coulomb: 0.00000            [K]
	Block[ 4] 0.00000            Van der Waals: 0.00000            Coulomb: 0.00000            [K]
	------------------------------------------------------------------------------
	Average   0.00000            Van der Waals: 0.000000           Coulomb: 0.00000            [K]
	      +/- 0.00000                       +/- 0.000000                +/- 0.00000            [K]

Average Host-Cation energy:
===========================
	Block[ 0] 0.00000            Van der Waals: 0.00000            Coulomb: 0.00000            [K]
	Block[ 1] 0.00000            Van der Waals: 0.00000            Coulomb: 0.00000            [K]
	Block[ 2] 0.00000            Van der Waals: 0.00000            Coulomb: 0.00000            [K]
	Block[ 3] 0.00000            Van der Waals: 0.00000            Coulomb: 0.00000            [K]
	Block[ 4] 0.00000            Van der Waals: 0.00000            Coulomb: 0.00000            [K]
	------------------------------------------------------------------------------
	Average   0.00000            Van der Waals: 0.000000           Coulomb: 0.00000            [K]
	      +/- 0.00000                       +/- 0.000000                +/- 0.00000            [K]

Average Adsorbate-Cation energy:
================================
	Block[ 0] 0.00000            Van der Waals: 0.00000            Coulomb: 0.00000            [K]
	Block[ 1] 0.00000            Van der Waals: 0.00000            Coulomb: 0.00000            [K]
	Block[ 2] 0.00000            Van der Waals: 0.00000            Coulomb: 0.00000            [K]
	Block[ 3] 0.00000            Van der Waals: 0.00000            Coulomb: 0.00000            [K]
	Block[ 4] 0.00000            Van der Waals: 0.00000            Coulomb: 0.00000            [K]
	------------------------------------------------------------------------------
	Average   0.00000            Van der Waals: 0.000000           Coulomb: 0.00000            [K]
	      +/- 0.00000                       +/- 0.000000                +/- 0.00000            [K]

Host polarization energy:
=======================
	Block[ 0]            0.00000 [K]
	Block[ 1]            0.00000 [K]
	Block[ 2]            0.00000 [K]
	Block[ 3]            0.00000 [K]
	Block[ 4]            0.00000 [K]
	------------------------------------------------------------------------------
	Average              0.00000 [K] +/-            0.00000 [K]

Adsorbate polarization energy:
=======================
	Block[ 0]            0.00000 [K]
	Block[ 1]            0.00000 [K]
	Block[ 2]            0.00000 [K]
	Block[ 3]            0.00000 [K]
	Block[ 4]            0.00000 [K]
	------------------------------------------------------------------------------
	Average              0.00000 [K] +/-            0.00000 [K]

Cation polarization energy:
=======================
	Block[ 0]            0.00000 [K]
	Block[ 1]            0.00000 [K]
	Block[ 2]            0.00000 [K]
	Block[ 3]            0.00000 [K]
	Block[ 4]            0.00000 [K]
	------------------------------------------------------------------------------
	Average              0.00000 [K] +/-            0.00000 [K]

Host back-polarization energy:
=======================
	Block[ 0]            0.00000 [K]
	Block[ 1]            0.00000 [K]
	Block[ 2]            0.00000 [K]
	Block[ 3]            0.00000 [K]
	Block[ 4]            0.00000 [K]
	------------------------------------------------------------------------------
	Average              0.00000 [K] +/-            0.00000 [K]

Adsorbate back-polarization energy:
=======================
	Block[ 0]            0.00000 [K]
	Block[ 1]            0.00000 [K]
	Block[ 2]            0.00000 [K]
	Block[ 3]            0.00000 [K]
	Block[ 4]            0.00000 [K]
	------------------------------------------------------------------------------
	Average              0.00000 [K] +/-            0.00000 [K]

Cation back-polarization energy:
=======================
	Block[ 0]            0.00000 [K]
	Block[ 1]            0.00000 [K]
	Block[ 2]            0.00000 [K]
	Block[ 3]            0.00000 [K]
	Block[ 4]            0.00000 [K]
	------------------------------------------------------------------------------
	Average              0.00000 [K] +/-            0.00000 [K]

Tail-correction energy:
=======================
	Block[ 0]            0.00000 [K]
	Block[ 1]            0.00000 [K]
	Block[ 2]            0.00000 [K]
	Block[ 3]            0.00000 [K]
	Block[ 4]            0.00000 [K]
	------------------------------------------------------------------------------
	Average              0.00000 [K] +/-            0.00000 [K]

Distance-constraints energy:
=======================
	Block[ 0]            0.00000 [K]
	Block[ 1]            0.00000 [K]
	Block[ 2]            0.00000 [K]
	Block[ 3]            0.00000 [K]
	Block[ 4]            0.00000 [K]
	------------------------------------------------------------------------------
	Average              0.00000 [K] +/-            0.00000 [K]

Angle-constraints energy:
=======================
	Block[ 0]            0.00000 [K]
	Block[ 1]            0.00000 [K]
	Block[ 2]            0.00000 [K]
	Block[ 3]            0.00000 [K]
	Block[ 4]            0.00000 [K]
	------------------------------------------------------------------------------
	Average              0.00000 [K] +/-            0.00000 [K]

Dihedral-constraints energy:
=======================
	Block[ 0]            0.00000 [K]
	Block[ 1]            0.00000 [K]
	Block[ 2]            0.00000 [K]
	Block[ 3]            0.00000 [K]
	Block[ 4]            0.00000 [K]
	------------------------------------------------------------------------------
	Average              0.00000 [K] +/-            0.00000 [K]

Inversion-bend constraints energy:
=======================
	Block[ 0]            0.00000 [K]
	Block[ 1]            0.00000 [K]
	Block[ 2]            0.00000 [K]
	Block[ 3]            0.00000 [K]
	Block[ 4]            0.00000 [K]
	------------------------------------------------------------------------------
	Average              0.00000 [K] +/-            0.00000 [K]

Out-of-plane-distance constraints energy:
=======================
	Block[ 0]            0.00000 [K]
	Block[ 1]            0.00000 [K]
	Block[ 2]            0.00000 [K]
	Block[ 3]            0.00000 [K]
	Block[ 4]            0.00000 [K]
	------------------------------------------------------------------------------
	Average              0.00000 [K] +/-            0.00000 [K]

Exclusion-constraints energy:
=======================
	Block[ 0]            0.00000 [K]
	Block[ 1]            0.00000 [K]
	Block[ 2]            0.00000 [K]
	Block[ 3]            0.00000 [K]
	Block[ 4]            0.00000 [K]
	------------------------------------------------------------------------------
	Average              0.00000 [K] +/-            0.00000 [K]

Total energy:
=============
	Block[ 0]            0.00000 [K]
	Block[ 1]            0.00000 [K]
	Block[ 2]            0.00000 [K]
	Block[ 3]            0.00000 [K]
	Block[ 4]            0.00000 [K]
	------------------------------------------------------------------------------
	Average              0.00000 [K] +/-            0.00000 [K]

Number of molecules:
====================

Component 0 [H2]
-------------------------------------------------------------
	Block[ 0] 0.00000            [-]
	Block[ 1] 0.00000            [-]
	Block[ 2] 0.00000            [-]
	Block[ 3] 0.00000            [-]
	Block[ 4] 0.00000            [-]
	------------------------------------------------------------------------------
	Average loading absolute                              0.0000000000 +/-       0.0000000000 [-]
	Average loading absolute [molecules/unit cell]        0.0000000000 +/-       0.0000000000 [-]
	Average loading absolute [mol/kg framework]                  0.0000000000 +/-       0.0000000000 [-]
	Average loading absolute [milligram/gram framework]          0.0000000000 +/-       0.0000000000 [-]
	Average loading absolute [cm^3 (STP)/gr framework]           0.0000000000 +/-       0.0000000000 [-]
	Average loading absolute [cm^3 (STP)/cm^3 framework]         0.0000000000 +/-       0.0000000000 [-]

	Block[ 0] 0.00000            [-]
	Block[ 1] 0.00000            [-]
	Block[ 2] 0.00000            [-]
	Block[ 3] 0.00000            [-]
	Block[ 4] 0.00000            [-]
	------------------------------------------------------------------------------
	Average loading excess                              0.0000000000 +/-       0.0000000000 [-]
	Average loading excess [molecules/unit cell]        0.0000000000 +/-       0.0000000000 [-]
	Average loading excess [mol/kg framework]                    0.0000000000 +/-       0.0000000000 [-]
	Average loading excess [milligram/gram framework]            0.0000000000 +/-       0.0000000000 [-]
	Average loading excess [cm^3 (STP)/gr framework]             0.0000000000 +/-       0.0000000000 [-]
	Average loading excess [cm^3 (STP)/cm^3 framework]           0.0000000000 +/-       0.0000000000 [-]


Average Widom Rosenbluth factor:
================================
	Block[ 0] 0 [-]
	Block[ 1] 0 [-]
	Block[ 2] 0 [-]
	Block[ 3] 0 [-]
	Block[ 4] 0 [-]
	------------------------------------------------------------------------------
	[H2] Average Widom Rosenbluth-weight:   0 +/- 0.000000 [-]

Average Widom chemical potential:
=================================
	Block[ 0] 0 [-]
	Block[ 1] 0 [-]
	Block[ 2] 0 [-]
	Block[ 3] 0 [-]
	Block[ 4] 0 [-]
	------------------------------------------------------------------------------
	[H2] Average chemical potential:   0 +/- 0.000000 [K]

Average Widom Ideal-gas contribution:
=====================================
	Block[ 0] 0 [-]
	Block[ 1] 0 [-]
	Block[ 2] 0 [-]
	Block[ 3] 0 [-]
	Block[ 4] 0 [-]
	------------------------------------------------------------------------------
	[H2] Average Widom Ideal-gas chemical potential:   0 +/- 0.000000 [-]

Average Widom excess contribution:
==================================
	Block[ 0] 0 [-]
	Block[ 1] 0 [-]
	Block[ 2] 0 [-]
	Block[ 3] 0 [-]
	Block[ 4] 0 [-]
	------------------------------------------------------------------------------
	[H2] Average Widom excess chemical potential:   0 +/- 0.000000 [-]

Average Gibbs Widom Rosenbluth factor:
======================================
	Block[ 0] 0 [-]
	Block[ 1] 0 [-]
	Block[ 2] 0 [-]
	Block[ 3] 0 [-]
	Block[ 4] 0 [-]
	------------------------------------------------------------------------------
	[H2] Average Gibbs Widom Rosenbluth-weight:   0 +/- 0.000000 [-]

Average Gibbs Widom chemical potential:
=======================================
	Block[ 0] 0 [-]
	Block[ 1] 0 [-]
	Block[ 2] 0 [-]
	Block[ 3] 0 [-]
	Block[ 4] 0 [-]
	------------------------------------------------------------------------------
	[H2] Average Gibbs chemical potential:   0 +/- 0.000000 [K]

Average osmostat calibration for alchemical transformation:
=======================================
	Block[ 0] 0 [-]
	Block[ 1] 0 [-]
	Block[ 2] 0 [-]
	Block[ 3] 0 [-]
	Block[ 4] 0 [-]
	------------------------------------------------------------------------------
	Average osmostat calibration for alchemical transformation:   0 +/- 0.000000 [K]
	Average osmostat calibration for alchemical transformation:   0 +/- 0.000000 [kJ/mol]

Average Gibbs Widom Ideal-gas contribution:
===========================================
	Block[ 0] 0 [-]
	Block[ 1] 0 [-]
	Block[ 2] 0 [-]
	Block[ 3] 0 [-]
	Block[ 4] 0 [-]
	------------------------------------------------------------------------------
	[H2] Average Gibbs Ideal-gas chemical potential:   0 +/- 0.000000 [-]

Average Gibbs Widom excess contribution:
===========================================
	Block[ 0] 0 [-]
	Block[ 1] 0 [-]
	Block[ 2] 0 [-]
	Block[ 3] 0 [-]
	Block[ 4] 0 [-]
	------------------------------------------------------------------------------
	[H2] Average Gibbs excess chemical potential:   0 +/- 0.000000 [-]

Average Henry coefficient:
==========================
	Block[ 0] 0 [mol/kg/Pa]
	Block[ 1] 0 [mol/kg/Pa]
	Block[ 2] 0 [mol/kg/Pa]
	Block[ 3] 0 [mol/kg/Pa]
	Block[ 4] 0 [mol/kg/Pa]
	------------------------------------------------------------------------------
	[H2] Average Henry coefficient:  0 +/- 0 [mol/kg/Pa]

Average adsorption energy <U_gh>_1-<U_h>_0 obtained from Widom-insertion:
(Note: the total heat of adsorption is dH=<U_gh>_1-<U_h>_0 - <U_g> - RT)
=========================================================================

Simulation finished,  2 warnings
WARNING: INAPPROPRIATE NUMBER OF UNIT CELLS USED
WARNING: THERE ARE ATOM-PAIRS WITH NO VDW INTERACTION O1-H_h2 O2-H_h2 O3-H_h2 O4-H_h2 O5-H_h2 O6-H_h2 O7-H_h2 O8-H_h2 O9-H_h2 O10-H_h2 O11-H_h2 O12-H_h2 O13-H_h2 O14-H_h2 O15-H_h2 O16-H_h2 O17-H_h2 O18-H_h2 O19-H_h2 O20-H_h2 C21-H_h2 C22-H_h2 C23-H_h2 C24-H_h2 C25-H_h2 C26-H_h2 C27-H_h2 C28-H_h2 C29-H_h2 C30-H_h2 C31-H_h2 C32-H_h2 C33-H_h2 C34-H_h2 C35-H_h2 C36-H_h2 C37-H_h2 C38-H_h2 C39-H_h2 C40-H_h2 C41-H_h2 C42-H_h2 C43-H_h2 C44-H_h2 C45-H_h2 C46-H_h2 C47-H_h2 C48-H_h2 C49-H_h2 C50-H_h2  (maximum 50 interactions shown)


Sun Apr 28 11:43:03 2024
Simulation finished on Sunday, April 28.
The end time was 11:43 AM.

