Compiler and run-time data
===========================================================================
RASPA 2.0.48
Compiled as a 64-bits application
Compiler: gcc 8.5.0 20210514 (Red Hat 8.5.0-18)
Compile Date = Apr 28 2024, Compile Time = 10:01:54

Sun Apr 28 11:30:38 2024
Simulation started on Sunday, April 28.
The start time was 11:30 AM.

Hostname:    exp-1-07
OS type:     Linux on x86_64
OS release:  4.18.0-477.15.1.el8_8.x86_64
OS version:  #1 SMP Wed Jun 28 15:04:18 UTC 2023

Simulation
===========================================================================
Dimensions: 3
Random number seed: 493896
RASPA directory set to: /expanse/lustre/projects/prd136/rgh/RASPA2_04_28_2024
String appended to output-files: 
Number of cycles: 2
Number of initializing cycles: 2
Number of equilibration cycles: 2
Print every: 1
Triclinic boundary condition applied
Timestep: 0.000500
	Degrees of freedom:                        2546
	Translational Degrees of freedom:          2526
	Rotational Degrees of freedom:             20
	Degrees of freedom Framework:              2496


Mutual consistent basic set of units:
======================================
Unit of temperature: Kelvin
Unit of length:      1e-10 [m]
Unit of time:        1e-12 [s]
Unit of mass:        1.66054e-27 [kg]
Unit of charge:      1.60218e-19 [C/particle]

Derived units and their conversion factors:
===========================================
Unit of energy:              1.66054e-23 [J]
Unit of force:               1.66054e-13 [N]
Unit of pressure:            1.66054e+07 [Pa]
Unit of velocity:            100 [m/s]
Unit of acceleration:        1e-08 [m^2/s]
Unit of diffusion:           1e-08 [m^2/s]
Unit of dipole moment:       1.60218e-29 [C.m]
Unit of electric potential:  0.000103643 [V]
Unit of electric field:      1.03643e+06 [V]
Unit of polarizability:      1.54587e-35 [-]
Unit of Coulomb potential:   167101.0800066561  [K]
Unit of dielectric constant: 0.0000154587       [s^2 C^2/(kg m^3)]
Unit of wave vectors:        5.3088374589       [cm^1]
Boltzmann constant:          0.8314464919       [-]

Internal conversion factors:
===========================================
Energy to Kelvin:                                    1.2027242847
FH correction factor                                 2.0211930949
Heat capacity conversion factor:                    10.0000088723
From Debye to internal units:                        4.8032067991
Isothermal compressibility conversion factor:        0.0000000602

Energy conversion factors:
===========================================
From mdyne/A to kcal/mol/A^2:           143.933
From mdyne/A to kj/mol/A^2:             602.214
From mdyne/A to K/A^2:                  72429.7
From mdyne A/rad^2 to kcal/mol/deg^2:   0.0438444


Properties computed
===========================================================================
Movies: no
Radial Distribution Function: no
Number of molecules GCMC histogram: no
Histogram of the molecule positions: no
Free energy profiles: no
Pore Size Distribution Function: no
End-to-end distance: no
Histogram of the energy of the system: no
Compute thermodynamic factors: no
Framework spacing histograms: no
Residence times histograms: no
Distance histograms: no
Bend Angle histograms: no
Dihedral angle histograms: no
Angle between planes histograms: no
Molecule properties: no
Infra-red spectra: no
Mean-squared displacement using modified order-N algorithm: yes
	msd is sampled every 1 cycles
	msd is written to file every 5000 cycles
	the (initial) maximum number of blocks: 25
	the number of elements per block: 25
	the msd's are computed per component
Velocity-autocorrelation function modified order-N algorithm: no
Rotational velocity-autocorrelation function modified order-N algorithm: no
Molecular orientation-autocorrelation function modified order-N algorithm: no
Bond orientation-autocorrelation function modified order-N algorithm: no
Mean-squared displacement (conventional algorithm): no
Velocity-autocorrelation function (conventional algorithm): no
3D density grid for adsorbates: no
Compute cation an/or adsorption sites: no
dcTST snapshots: no
Compute pressure and stress: no


VTK
===========================================================================
VTK fractional-range position framework atoms: [-0.001000,1.001000] [-0.001000,1.001000] [-0.001000,1.001000]
VTK fractional-range position framework bonds: [-0.151000,1.151000] [-0.151000,1.151000] [-0.151000,1.151000]
VTK fractional-range com-position adsorbate molecules: [-0.101000,1.101000] [-0.101000,1.101000] [-0.101000,1.101000]
VTK fractional-range com-position cation molecules: [-0.101000,1.101000] [-0.101000,1.101000] [-0.101000,1.101000]
	3D free energy grid made for the full simulation-cell


Thermo/Baro-stat NHC parameters
===========================================================================
External temperature: 298 [K]
Beta: 0.00403598 [energy unit]
External Pressure: 0 [Pa]


Thermostat chain-length: 3
Timescale parameter for thermostat: 0.150000 [ps]
Barostat chain-length:   3
Timescale parameter for barostat:   0.150000 [ps]

Number of Yoshida-Suzuki decomposition steps: 5
Number of respa steps: 5


Method and settings for electrostatics
===============================================================================
Dielectric constant of the medium : 1.000000
Charge from charge-equilibration: no
Ewald summation is used (exact solution of a periodic system)
Relative precision                : 1e-06
Alpha convergence parameter       : 0.265058
kvec (x,y,z)                      : 6 6 7


CFC-RXMC parameters
===========================================================================
Number of reactions: 0


Rattle parameters
===========================================================================
Distance constraint type: r^2-r^2_0
Bend angle constraint type: theta-theta_0
Dihedral angle constraint type: phi-phi_0
Inversion-bend angle constraint type: chi-chi_0
Out-of-plane distance constraint type: r-r_0


Spectra parameters
===========================================================================
Compute normal modes: no


Minimization parameters
===========================================================================
Generalized coordinates are: Cartesian center-of-mass, elements of the orientational matrix p1,p2,p3 and strain
Potential derivatives are evaluated: analytically
Translation of the system is removed from the generalized Hessian: no
Rotation of the system is removed from the generalized Hessian: no
Maximum step-length: 0.3
Convergence factor: 1
Maximum number of minimization steps: 10000
Use gradients in the line-minimizations: yes
RMS gradient tolerance: 1e-06
Maximum gradient tolerance: 1e-06

Distance constraints: 0
Angle constraints: 0
Dihedral constraints: 0

Improper dihedral constraints: 0

Inversion-bend constraints: 0

Out-of-plane constraints: 0

Harmonic distance constraints: 0
Harmonic angle constraints: 0
Harmonic dihedral constraints: 0

Dihedral mid-point measurements: 0

Number of fixed framework atoms: 0  (active: 832)
fixed atom-list: 
Number of active framework atoms: 832  (fixed: 0)
active atom-list: 

Fixed adsorbate atoms:  
Fixed adsorbate groups (center-of-mass):  
Fixed adsorbate groups (orientation):  

Fixed cation atoms:  
Fixed cation groups (center-of-mass):  
Fixed cation groups (orientation):  


dcTST parameters
===========================================================================
Free energy profiles computed: no
Free energy profiles written every 5000 cycles
Free energy mapping: mapped to a,b,c-coordinates
BarrierPosition:       0.0000000000       0.0000000000       0.0000000000
BarrierNormal:         0.0000000000       0.0000000000       0.0000000000
Start with a molecule on top of the barrier: no
Maximum distance to barrier (e.g. distance to minumum free energy):       0.0000000000 [A]
Maximum trajectory time:      10.0000000000 [ps]
Each configuration is used with 5 different initial velocities


Cbmc parameters
===========================================================================
Biasing method: using only the VDW part
Number of trial positions:                                       10
Number of trial positions (reinsertion):                         10
Number of trial positions (partial reinsertion):                 10
Number of trial positions (identity-change):                     10
Number of trial positions (Gibbs particle transfer):             10
Number of trial positions (insertion/deletion):                  10
Number of trial positions (Widom insertion):                     10
Number of trial positions coupled Torsion-selection:             100
Number of trial positions first bead:                            10
Number of trial positions first bead (reinsertion):              10
Number of trial positions first bead (partial reinsertion):      10
Number of trial positions first bead (identity-change):          10
Number of trial positions first bead (Gibbs particle transfer):  10
Number of trial positions first bead (insertion/deletion):       10
Number of trial positions first bead (Widom insertion):          10
Number of trial moves per open bead:                             150
Target acceptance ratio small-mc scheme:                         0.400000
Energy overlap criteria:                                         1e+07
Minimal Rosenbluth factor:                                       1e-150


Pseudo atoms: 136
===========================================================================
Pseudo Atom[   0] Name UNIT     Oxidation:          Element: H    pdb-name: H    Scat. Types:   1   1 Mass=1.000000000  B-factor:0.000   
                 Charge=1.000000000          Polarization=0.000000000  [A^3] (considered a charged atom and no polarization)  Interactions: yes
                 Anisotropic factor:    0.000 [-] (Absolute), Radius:    1.000 [A], Framework-atom:  no
Pseudo Atom[   1] Name Cu1      Oxidation: +0       Element: Cu   pdb-name: Cu   Scat. Types:  30  29 Mass=63.546000000 B-factor:1.000   
                 Charge=0.299090000    (av)  Polarization=2.228510790  [A^3] (considered a charged atom and polarizable)  Interactions: yes
                 Anisotropic factor:    0.000 [-] (Relative), Radius:    1.310 [A], Framework-atom: yes (charge from structure file)
Pseudo Atom[   2] Name Cu2      Oxidation: +0       Element: Cu   pdb-name: Cu   Scat. Types:  30  29 Mass=63.546000000 B-factor:1.000   
                 Charge=0.274354000    (av)  Polarization=2.273446030  [A^3] (considered a charged atom and polarizable)  Interactions: yes
                 Anisotropic factor:    0.000 [-] (Relative), Radius:    1.310 [A], Framework-atom: yes (charge from structure file)
Pseudo Atom[   3] Name Cu3      Oxidation: +0       Element: Cu   pdb-name: Cu   Scat. Types:  30  29 Mass=63.546000000 B-factor:1.000   
                 Charge=0.318949000    (av)  Polarization=2.203958500  [A^3] (considered a charged atom and polarizable)  Interactions: yes
                 Anisotropic factor:    0.000 [-] (Relative), Radius:    1.310 [A], Framework-atom: yes (charge from structure file)
Pseudo Atom[   4] Name Cu4      Oxidation: +0       Element: Cu   pdb-name: Cu   Scat. Types:  30  29 Mass=63.546000000 B-factor:1.000   
                 Charge=0.299054000    (av)  Polarization=2.228558500  [A^3] (considered a charged atom and polarizable)  Interactions: yes
                 Anisotropic factor:    0.000 [-] (Relative), Radius:    1.310 [A], Framework-atom: yes (charge from structure file)
Pseudo Atom[   5] Name Cu5      Oxidation: +0       Element: Cu   pdb-name: Cu   Scat. Types:  30  29 Mass=63.546000000 B-factor:1.000   
                 Charge=0.274383000    (av)  Polarization=2.273366310  [A^3] (considered a charged atom and polarizable)  Interactions: yes
                 Anisotropic factor:    0.000 [-] (Relative), Radius:    1.310 [A], Framework-atom: yes (charge from structure file)
Pseudo Atom[   6] Name Cu6      Oxidation: +0       Element: Cu   pdb-name: Cu   Scat. Types:  30  29 Mass=63.546000000 B-factor:1.000   
                 Charge=0.318869000    (av)  Polarization=2.204123280  [A^3] (considered a charged atom and polarizable)  Interactions: yes
                 Anisotropic factor:    0.000 [-] (Relative), Radius:    1.310 [A], Framework-atom: yes (charge from structure file)
Pseudo Atom[   7] Name H7       Oxidation: +0       Element: H    pdb-name: H    Scat. Types:   1   1 Mass=1.007940000  B-factor:1.000   
                 Charge=0.137529000    (av)  Polarization=0.284384600  [A^3] (considered a charged atom and polarizable)  Interactions: yes
                 Anisotropic factor:    0.000 [-] (Relative), Radius:    0.380 [A], Framework-atom: yes (charge from structure file)
Pseudo Atom[   8] Name H8       Oxidation: +0       Element: H    pdb-name: H    Scat. Types:   1   1 Mass=1.007940000  B-factor:1.000   
                 Charge=0.141832000    (av)  Polarization=0.281581090  [A^3] (considered a charged atom and polarizable)  Interactions: yes
                 Anisotropic factor:    0.000 [-] (Relative), Radius:    0.380 [A], Framework-atom: yes (charge from structure file)
Pseudo Atom[   9] Name H9       Oxidation: +0       Element: H    pdb-name: H    Scat. Types:   1   1 Mass=1.007940000  B-factor:1.000   
                 Charge=0.140157000    (av)  Polarization=0.291005340  [A^3] (considered a charged atom and polarizable)  Interactions: yes
                 Anisotropic factor:    0.000 [-] (Relative), Radius:    0.380 [A], Framework-atom: yes (charge from structure file)
Pseudo Atom[  10] Name H10      Oxidation: +0       Element: H    pdb-name: H    Scat. Types:   1   1 Mass=1.007940000  B-factor:1.000   
                 Charge=0.280840000    (av)  Polarization=0.235175850  [A^3] (considered a charged atom and polarizable)  Interactions: yes
                 Anisotropic factor:    0.000 [-] (Relative), Radius:    0.380 [A], Framework-atom: yes (charge from structure file)
Pseudo Atom[  11] Name H11      Oxidation: +0       Element: H    pdb-name: H    Scat. Types:   1   1 Mass=1.007940000  B-factor:1.000   
                 Charge=0.281896000    (av)  Polarization=0.240235920  [A^3] (considered a charged atom and polarizable)  Interactions: yes
                 Anisotropic factor:    0.000 [-] (Relative), Radius:    0.380 [A], Framework-atom: yes (charge from structure file)
Pseudo Atom[  12] Name H12      Oxidation: +0       Element: H    pdb-name: H    Scat. Types:   1   1 Mass=1.007940000  B-factor:1.000   
                 Charge=0.141867000    (av)  Polarization=0.302429500  [A^3] (considered a charged atom and polarizable)  Interactions: yes
                 Anisotropic factor:    0.000 [-] (Relative), Radius:    0.380 [A], Framework-atom: yes (charge from structure file)
Pseudo Atom[  13] Name H13      Oxidation: +0       Element: H    pdb-name: H    Scat. Types:   1   1 Mass=1.007940000  B-factor:1.000   
                 Charge=0.129738000    (av)  Polarization=0.287881610  [A^3] (considered a charged atom and polarizable)  Interactions: yes
                 Anisotropic factor:    0.000 [-] (Relative), Radius:    0.380 [A], Framework-atom: yes (charge from structure file)
Pseudo Atom[  14] Name H14      Oxidation: +0       Element: H    pdb-name: H    Scat. Types:   1   1 Mass=1.007940000  B-factor:1.000   
                 Charge=0.138801000    (av)  Polarization=0.307510160  [A^3] (considered a charged atom and polarizable)  Interactions: yes
                 Anisotropic factor:    0.000 [-] (Relative), Radius:    0.380 [A], Framework-atom: yes (charge from structure file)
Pseudo Atom[  15] Name H15      Oxidation: +0       Element: H    pdb-name: H    Scat. Types:   1   1 Mass=1.007940000  B-factor:1.000   
                 Charge=0.115269000    (av)  Polarization=0.314772840  [A^3] (considered a charged atom and polarizable)  Interactions: yes
                 Anisotropic factor:    0.000 [-] (Relative), Radius:    0.380 [A], Framework-atom: yes (charge from structure file)
Pseudo Atom[  16] Name H16      Oxidation: +0       Element: H    pdb-name: H    Scat. Types:   1   1 Mass=1.007940000  B-factor:1.000   
                 Charge=0.111963000    (av)  Polarization=0.345711890  [A^3] (considered a charged atom and polarizable)  Interactions: yes
                 Anisotropic factor:    0.000 [-] (Relative), Radius:    0.380 [A], Framework-atom: yes (charge from structure file)
Pseudo Atom[  17] Name H17      Oxidation: +0       Element: H    pdb-name: H    Scat. Types:   1   1 Mass=1.007940000  B-factor:1.000   
                 Charge=0.115415000    (av)  Polarization=0.317569830  [A^3] (considered a charged atom and polarizable)  Interactions: yes
                 Anisotropic factor:    0.000 [-] (Relative), Radius:    0.380 [A], Framework-atom: yes (charge from structure file)
Pseudo Atom[  18] Name H18      Oxidation: +0       Element: H    pdb-name: H    Scat. Types:   1   1 Mass=1.007940000  B-factor:1.000   
                 Charge=0.092248000    (av)  Polarization=0.311306650  [A^3] (considered a charged atom and polarizable)  Interactions: yes
                 Anisotropic factor:    0.000 [-] (Relative), Radius:    0.380 [A], Framework-atom: yes (charge from structure file)
Pseudo Atom[  19] Name H19      Oxidation: +0       Element: H    pdb-name: H    Scat. Types:   1   1 Mass=1.007940000  B-factor:1.000   
                 Charge=0.109060000    (av)  Polarization=0.314716230  [A^3] (considered a charged atom and polarizable)  Interactions: yes
                 Anisotropic factor:    0.000 [-] (Relative), Radius:    0.380 [A], Framework-atom: yes (charge from structure file)
Pseudo Atom[  20] Name H20      Oxidation: +0       Element: H    pdb-name: H    Scat. Types:   1   1 Mass=1.007940000  B-factor:1.000   
                 Charge=0.127842000    (av)  Polarization=0.294426630  [A^3] (considered a charged atom and polarizable)  Interactions: yes
                 Anisotropic factor:    0.000 [-] (Relative), Radius:    0.380 [A], Framework-atom: yes (charge from structure file)
Pseudo Atom[  21] Name H21      Oxidation: +0       Element: H    pdb-name: H    Scat. Types:   1   1 Mass=1.007940000  B-factor:1.000   
                 Charge=0.109848000    (av)  Polarization=0.319667090  [A^3] (considered a charged atom and polarizable)  Interactions: yes
                 Anisotropic factor:    0.000 [-] (Relative), Radius:    0.380 [A], Framework-atom: yes (charge from structure file)
Pseudo Atom[  22] Name H22      Oxidation: +0       Element: H    pdb-name: H    Scat. Types:   1   1 Mass=1.007940000  B-factor:1.000   
                 Charge=0.133277000    (av)  Polarization=0.295376200  [A^3] (considered a charged atom and polarizable)  Interactions: yes
                 Anisotropic factor:    0.000 [-] (Relative), Radius:    0.380 [A], Framework-atom: yes (charge from structure file)
Pseudo Atom[  23] Name H23      Oxidation: +0       Element: H    pdb-name: H    Scat. Types:   1   1 Mass=1.007940000  B-factor:1.000   
                 Charge=0.147844000    (av)  Polarization=0.296555900  [A^3] (considered a charged atom and polarizable)  Interactions: yes
                 Anisotropic factor:    0.000 [-] (Relative), Radius:    0.380 [A], Framework-atom: yes (charge from structure file)
Pseudo Atom[  24] Name H24      Oxidation: +0       Element: H    pdb-name: H    Scat. Types:   1   1 Mass=1.007940000  B-factor:1.000   
                 Charge=0.148458000    (av)  Polarization=0.332590130  [A^3] (considered a charged atom and polarizable)  Interactions: yes
                 Anisotropic factor:    0.000 [-] (Relative), Radius:    0.380 [A], Framework-atom: yes (charge from structure file)
Pseudo Atom[  25] Name H25      Oxidation: +0       Element: H    pdb-name: H    Scat. Types:   1   1 Mass=1.007940000  B-factor:1.000   
                 Charge=0.138099000    (av)  Polarization=0.306940830  [A^3] (considered a charged atom and polarizable)  Interactions: yes
                 Anisotropic factor:    0.000 [-] (Relative), Radius:    0.380 [A], Framework-atom: yes (charge from structure file)
Pseudo Atom[  26] Name H26      Oxidation: +0       Element: H    pdb-name: H    Scat. Types:   1   1 Mass=1.007940000  B-factor:1.000   
                 Charge=0.140379000    (av)  Polarization=0.307021590  [A^3] (considered a charged atom and polarizable)  Interactions: yes
                 Anisotropic factor:    0.000 [-] (Relative), Radius:    0.380 [A], Framework-atom: yes (charge from structure file)
Pseudo Atom[  27] Name H27      Oxidation: +0       Element: H    pdb-name: H    Scat. Types:   1   1 Mass=1.007940000  B-factor:1.000   
                 Charge=0.133995000    (av)  Polarization=0.278134310  [A^3] (considered a charged atom and polarizable)  Interactions: yes
                 Anisotropic factor:    0.000 [-] (Relative), Radius:    0.380 [A], Framework-atom: yes (charge from structure file)
Pseudo Atom[  28] Name H28      Oxidation: +0       Element: H    pdb-name: H    Scat. Types:   1   1 Mass=1.007940000  B-factor:1.000   
                 Charge=0.137526000    (av)  Polarization=0.284395270  [A^3] (considered a charged atom and polarizable)  Interactions: yes
                 Anisotropic factor:    0.000 [-] (Relative), Radius:    0.380 [A], Framework-atom: yes (charge from structure file)
Pseudo Atom[  29] Name H29      Oxidation: +0       Element: H    pdb-name: H    Scat. Types:   1   1 Mass=1.007940000  B-factor:1.000   
                 Charge=0.141819000    (av)  Polarization=0.281584350  [A^3] (considered a charged atom and polarizable)  Interactions: yes
                 Anisotropic factor:    0.000 [-] (Relative), Radius:    0.380 [A], Framework-atom: yes (charge from structure file)
Pseudo Atom[  30] Name H30      Oxidation: +0       Element: H    pdb-name: H    Scat. Types:   1   1 Mass=1.007940000  B-factor:1.000   
                 Charge=0.140149000    (av)  Polarization=0.291044610  [A^3] (considered a charged atom and polarizable)  Interactions: yes
                 Anisotropic factor:    0.000 [-] (Relative), Radius:    0.380 [A], Framework-atom: yes (charge from structure file)
Pseudo Atom[  31] Name H31      Oxidation: +0       Element: H    pdb-name: H    Scat. Types:   1   1 Mass=1.007940000  B-factor:1.000   
                 Charge=0.280811000    (av)  Polarization=0.235171550  [A^3] (considered a charged atom and polarizable)  Interactions: yes
                 Anisotropic factor:    0.000 [-] (Relative), Radius:    0.380 [A], Framework-atom: yes (charge from structure file)
Pseudo Atom[  32] Name H32      Oxidation: +0       Element: H    pdb-name: H    Scat. Types:   1   1 Mass=1.007940000  B-factor:1.000   
                 Charge=0.281916000    (av)  Polarization=0.240286300  [A^3] (considered a charged atom and polarizable)  Interactions: yes
                 Anisotropic factor:    0.000 [-] (Relative), Radius:    0.380 [A], Framework-atom: yes (charge from structure file)
Pseudo Atom[  33] Name H33      Oxidation: +0       Element: H    pdb-name: H    Scat. Types:   1   1 Mass=1.007940000  B-factor:1.000   
                 Charge=0.141866000    (av)  Polarization=0.302438830  [A^3] (considered a charged atom and polarizable)  Interactions: yes
                 Anisotropic factor:    0.000 [-] (Relative), Radius:    0.380 [A], Framework-atom: yes (charge from structure file)
Pseudo Atom[  34] Name H34      Oxidation: +0       Element: H    pdb-name: H    Scat. Types:   1   1 Mass=1.007940000  B-factor:1.000   
                 Charge=0.129721000    (av)  Polarization=0.287897910  [A^3] (considered a charged atom and polarizable)  Interactions: yes
                 Anisotropic factor:    0.000 [-] (Relative), Radius:    0.380 [A], Framework-atom: yes (charge from structure file)
Pseudo Atom[  35] Name H35      Oxidation: +0       Element: H    pdb-name: H    Scat. Types:   1   1 Mass=1.007940000  B-factor:1.000   
                 Charge=0.138780000    (av)  Polarization=0.307512230  [A^3] (considered a charged atom and polarizable)  Interactions: yes
                 Anisotropic factor:    0.000 [-] (Relative), Radius:    0.380 [A], Framework-atom: yes (charge from structure file)
Pseudo Atom[  36] Name H36      Oxidation: +0       Element: H    pdb-name: H    Scat. Types:   1   1 Mass=1.007940000  B-factor:1.000   
                 Charge=0.115288000    (av)  Polarization=0.314755060  [A^3] (considered a charged atom and polarizable)  Interactions: yes
                 Anisotropic factor:    0.000 [-] (Relative), Radius:    0.380 [A], Framework-atom: yes (charge from structure file)
Pseudo Atom[  37] Name H37      Oxidation: +0       Element: H    pdb-name: H    Scat. Types:   1   1 Mass=1.007940000  B-factor:1.000   
                 Charge=0.111959000    (av)  Polarization=0.345695440  [A^3] (considered a charged atom and polarizable)  Interactions: yes
                 Anisotropic factor:    0.000 [-] (Relative), Radius:    0.380 [A], Framework-atom: yes (charge from structure file)
Pseudo Atom[  38] Name H38      Oxidation: +0       Element: H    pdb-name: H    Scat. Types:   1   1 Mass=1.007940000  B-factor:1.000   
                 Charge=0.115394000    (av)  Polarization=0.317591020  [A^3] (considered a charged atom and polarizable)  Interactions: yes
                 Anisotropic factor:    0.000 [-] (Relative), Radius:    0.380 [A], Framework-atom: yes (charge from structure file)
Pseudo Atom[  39] Name H39      Oxidation: +0       Element: H    pdb-name: H    Scat. Types:   1   1 Mass=1.007940000  B-factor:1.000   
                 Charge=0.092227000    (av)  Polarization=0.311348740  [A^3] (considered a charged atom and polarizable)  Interactions: yes
                 Anisotropic factor:    0.000 [-] (Relative), Radius:    0.380 [A], Framework-atom: yes (charge from structure file)
Pseudo Atom[  40] Name H40      Oxidation: +0       Element: H    pdb-name: H    Scat. Types:   1   1 Mass=1.007940000  B-factor:1.000   
                 Charge=0.109095000    (av)  Polarization=0.314691340  [A^3] (considered a charged atom and polarizable)  Interactions: yes
                 Anisotropic factor:    0.000 [-] (Relative), Radius:    0.380 [A], Framework-atom: yes (charge from structure file)
Pseudo Atom[  41] Name H41      Oxidation: +0       Element: H    pdb-name: H    Scat. Types:   1   1 Mass=1.007940000  B-factor:1.000   
                 Charge=0.127834000    (av)  Polarization=0.294423080  [A^3] (considered a charged atom and polarizable)  Interactions: yes
                 Anisotropic factor:    0.000 [-] (Relative), Radius:    0.380 [A], Framework-atom: yes (charge from structure file)
Pseudo Atom[  42] Name H42      Oxidation: +0       Element: H    pdb-name: H    Scat. Types:   1   1 Mass=1.007940000  B-factor:1.000   
                 Charge=0.109849000    (av)  Polarization=0.319660120  [A^3] (considered a charged atom and polarizable)  Interactions: yes
                 Anisotropic factor:    0.000 [-] (Relative), Radius:    0.380 [A], Framework-atom: yes (charge from structure file)
Pseudo Atom[  43] Name H43      Oxidation: +0       Element: H    pdb-name: H    Scat. Types:   1   1 Mass=1.007940000  B-factor:1.000   
                 Charge=0.133267000    (av)  Polarization=0.295371610  [A^3] (considered a charged atom and polarizable)  Interactions: yes
                 Anisotropic factor:    0.000 [-] (Relative), Radius:    0.380 [A], Framework-atom: yes (charge from structure file)
Pseudo Atom[  44] Name H44      Oxidation: +0       Element: H    pdb-name: H    Scat. Types:   1   1 Mass=1.007940000  B-factor:1.000   
                 Charge=0.147836000    (av)  Polarization=0.296557680  [A^3] (considered a charged atom and polarizable)  Interactions: yes
                 Anisotropic factor:    0.000 [-] (Relative), Radius:    0.380 [A], Framework-atom: yes (charge from structure file)
Pseudo Atom[  45] Name H45      Oxidation: +0       Element: H    pdb-name: H    Scat. Types:   1   1 Mass=1.007940000  B-factor:1.000   
                 Charge=0.148383000    (av)  Polarization=0.332624950  [A^3] (considered a charged atom and polarizable)  Interactions: yes
                 Anisotropic factor:    0.000 [-] (Relative), Radius:    0.380 [A], Framework-atom: yes (charge from structure file)
Pseudo Atom[  46] Name H46      Oxidation: +0       Element: H    pdb-name: H    Scat. Types:   1   1 Mass=1.007940000  B-factor:1.000   
                 Charge=0.138033000    (av)  Polarization=0.306989140  [A^3] (considered a charged atom and polarizable)  Interactions: yes
                 Anisotropic factor:    0.000 [-] (Relative), Radius:    0.380 [A], Framework-atom: yes (charge from structure file)
Pseudo Atom[  47] Name H47      Oxidation: +0       Element: H    pdb-name: H    Scat. Types:   1   1 Mass=1.007940000  B-factor:1.000   
                 Charge=0.140382000    (av)  Polarization=0.307001000  [A^3] (considered a charged atom and polarizable)  Interactions: yes
                 Anisotropic factor:    0.000 [-] (Relative), Radius:    0.380 [A], Framework-atom: yes (charge from structure file)
Pseudo Atom[  48] Name H48      Oxidation: +0       Element: H    pdb-name: H    Scat. Types:   1   1 Mass=1.007940000  B-factor:1.000   
                 Charge=0.134056000    (av)  Polarization=0.278107190  [A^3] (considered a charged atom and polarizable)  Interactions: yes
                 Anisotropic factor:    0.000 [-] (Relative), Radius:    0.380 [A], Framework-atom: yes (charge from structure file)
Pseudo Atom[  49] Name C49      Oxidation: +0       Element: C    pdb-name: C    Scat. Types:   7   6 Mass=12.010700000 B-factor:1.000   
                 Charge=-0.421652000   (av)  Polarization=1.117243610  [A^3] (considered a charged atom and polarizable)  Interactions: yes
                 Anisotropic factor:    0.000 [-] (Relative), Radius:    0.880 [A], Framework-atom: yes (charge from structure file)
Pseudo Atom[  50] Name C50      Oxidation: +0       Element: C    pdb-name: C    Scat. Types:   7   6 Mass=12.010700000 B-factor:1.000   
                 Charge=0.197605000    (av)  Polarization=0.997613770  [A^3] (considered a charged atom and polarizable)  Interactions: yes
                 Anisotropic factor:    0.000 [-] (Relative), Radius:    0.880 [A], Framework-atom: yes (charge from structure file)
Pseudo Atom[  51] Name C51      Oxidation: +0       Element: C    pdb-name: C    Scat. Types:   7   6 Mass=12.010700000 B-factor:1.000   
                 Charge=-0.123284000   (av)  Polarization=1.099346150  [A^3] (considered a charged atom and polarizable)  Interactions: yes
                 Anisotropic factor:    0.000 [-] (Relative), Radius:    0.880 [A], Framework-atom: yes (charge from structure file)
Pseudo Atom[  52] Name C52      Oxidation: +0       Element: C    pdb-name: C    Scat. Types:   7   6 Mass=12.010700000 B-factor:1.000   
                 Charge=0.205505000    (av)  Polarization=1.000171880  [A^3] (considered a charged atom and polarizable)  Interactions: yes
                 Anisotropic factor:    0.000 [-] (Relative), Radius:    0.880 [A], Framework-atom: yes (charge from structure file)
Pseudo Atom[  53] Name C53      Oxidation: +0       Element: C    pdb-name: C    Scat. Types:   7   6 Mass=12.010700000 B-factor:1.000   
                 Charge=-0.418527000   (av)  Polarization=1.127148130  [A^3] (considered a charged atom and polarizable)  Interactions: yes
                 Anisotropic factor:    0.000 [-] (Relative), Radius:    0.880 [A], Framework-atom: yes (charge from structure file)
Pseudo Atom[  54] Name C54      Oxidation: +0       Element: C    pdb-name: C    Scat. Types:   7   6 Mass=12.010700000 B-factor:1.000   
                 Charge=-0.237687000   (av)  Polarization=1.117513450  [A^3] (considered a charged atom and polarizable)  Interactions: yes
                 Anisotropic factor:    0.000 [-] (Relative), Radius:    0.880 [A], Framework-atom: yes (charge from structure file)
Pseudo Atom[  55] Name C55      Oxidation: +0       Element: C    pdb-name: C    Scat. Types:   7   6 Mass=12.010700000 B-factor:1.000   
                 Charge=0.267303000    (av)  Polarization=0.992516360  [A^3] (considered a charged atom and polarizable)  Interactions: yes
                 Anisotropic factor:    0.000 [-] (Relative), Radius:    0.880 [A], Framework-atom: yes (charge from structure file)
Pseudo Atom[  56] Name C56      Oxidation: +0       Element: C    pdb-name: C    Scat. Types:   7   6 Mass=12.010700000 B-factor:1.000   
                 Charge=-0.191042000   (av)  Polarization=1.120441880  [A^3] (considered a charged atom and polarizable)  Interactions: yes
                 Anisotropic factor:    0.000 [-] (Relative), Radius:    0.880 [A], Framework-atom: yes (charge from structure file)
Pseudo Atom[  57] Name C57      Oxidation: +0       Element: C    pdb-name: C    Scat. Types:   7   6 Mass=12.010700000 B-factor:1.000   
                 Charge=-0.022139000   (av)  Polarization=1.059615750  [A^3] (considered a charged atom and polarizable)  Interactions: yes
                 Anisotropic factor:    0.000 [-] (Relative), Radius:    0.880 [A], Framework-atom: yes (charge from structure file)
Pseudo Atom[  58] Name C58      Oxidation: +0       Element: C    pdb-name: C    Scat. Types:   7   6 Mass=12.010700000 B-factor:1.000   
                 Charge=-0.205686000   (av)  Polarization=1.116611750  [A^3] (considered a charged atom and polarizable)  Interactions: yes
                 Anisotropic factor:    0.000 [-] (Relative), Radius:    0.880 [A], Framework-atom: yes (charge from structure file)
Pseudo Atom[  59] Name C59      Oxidation: +0       Element: C    pdb-name: C    Scat. Types:   7   6 Mass=12.010700000 B-factor:1.000   
                 Charge=0.273079000    (av)  Polarization=0.991424240  [A^3] (considered a charged atom and polarizable)  Interactions: yes
                 Anisotropic factor:    0.000 [-] (Relative), Radius:    0.880 [A], Framework-atom: yes (charge from structure file)
Pseudo Atom[  60] Name C60      Oxidation: +0       Element: C    pdb-name: C    Scat. Types:   7   6 Mass=12.010700000 B-factor:1.000   
                 Charge=-0.248855000   (av)  Polarization=1.165858730  [A^3] (considered a charged atom and polarizable)  Interactions: yes
                 Anisotropic factor:    0.000 [-] (Relative), Radius:    0.880 [A], Framework-atom: yes (charge from structure file)
Pseudo Atom[  61] Name C61      Oxidation: +0       Element: C    pdb-name: C    Scat. Types:   7   6 Mass=12.010700000 B-factor:1.000   
                 Charge=-0.426116000   (av)  Polarization=1.103107970  [A^3] (considered a charged atom and polarizable)  Interactions: yes
                 Anisotropic factor:    0.000 [-] (Relative), Radius:    0.880 [A], Framework-atom: yes (charge from structure file)
Pseudo Atom[  62] Name C62      Oxidation: +0       Element: C    pdb-name: C    Scat. Types:   7   6 Mass=12.010700000 B-factor:1.000   
                 Charge=0.203495000    (av)  Polarization=1.009941110  [A^3] (considered a charged atom and polarizable)  Interactions: yes
                 Anisotropic factor:    0.000 [-] (Relative), Radius:    0.880 [A], Framework-atom: yes (charge from structure file)
Pseudo Atom[  63] Name C63      Oxidation: +0       Element: C    pdb-name: C    Scat. Types:   7   6 Mass=12.010700000 B-factor:1.000   
                 Charge=-0.126180000   (av)  Polarization=1.168414320  [A^3] (considered a charged atom and polarizable)  Interactions: yes
                 Anisotropic factor:    0.000 [-] (Relative), Radius:    0.880 [A], Framework-atom: yes (charge from structure file)
Pseudo Atom[  64] Name C64      Oxidation: +0       Element: C    pdb-name: C    Scat. Types:   7   6 Mass=12.010700000 B-factor:1.000   
                 Charge=0.193490000    (av)  Polarization=1.046190660  [A^3] (considered a charged atom and polarizable)  Interactions: yes
                 Anisotropic factor:    0.000 [-] (Relative), Radius:    0.880 [A], Framework-atom: yes (charge from structure file)
Pseudo Atom[  65] Name C65      Oxidation: +0       Element: C    pdb-name: C    Scat. Types:   7   6 Mass=12.010700000 B-factor:1.000   
                 Charge=-0.417677000   (av)  Polarization=1.099100610  [A^3] (considered a charged atom and polarizable)  Interactions: yes
                 Anisotropic factor:    0.000 [-] (Relative), Radius:    0.880 [A], Framework-atom: yes (charge from structure file)
Pseudo Atom[  66] Name C66      Oxidation: +0       Element: C    pdb-name: C    Scat. Types:   7   6 Mass=12.010700000 B-factor:1.000   
                 Charge=-0.135147000   (av)  Polarization=1.304566760  [A^3] (considered a charged atom and polarizable)  Interactions: yes
                 Anisotropic factor:    0.000 [-] (Relative), Radius:    0.880 [A], Framework-atom: yes (charge from structure file)
Pseudo Atom[  67] Name C67      Oxidation: +0       Element: C    pdb-name: C    Scat. Types:   7   6 Mass=12.010700000 B-factor:1.000   
                 Charge=-0.161620000   (av)  Polarization=1.294767300  [A^3] (considered a charged atom and polarizable)  Interactions: yes
                 Anisotropic factor:    0.000 [-] (Relative), Radius:    0.880 [A], Framework-atom: yes (charge from structure file)
Pseudo Atom[  68] Name C68      Oxidation: +0       Element: C    pdb-name: C    Scat. Types:   7   6 Mass=12.010700000 B-factor:1.000   
                 Charge=-0.140689000   (av)  Polarization=1.281128970  [A^3] (considered a charged atom and polarizable)  Interactions: yes
                 Anisotropic factor:    0.000 [-] (Relative), Radius:    0.880 [A], Framework-atom: yes (charge from structure file)
Pseudo Atom[  69] Name C69      Oxidation: +0       Element: C    pdb-name: C    Scat. Types:   7   6 Mass=12.010700000 B-factor:1.000   
                 Charge=-0.421621000   (av)  Polarization=1.117181960  [A^3] (considered a charged atom and polarizable)  Interactions: yes
                 Anisotropic factor:    0.000 [-] (Relative), Radius:    0.880 [A], Framework-atom: yes (charge from structure file)
Pseudo Atom[  70] Name C70      Oxidation: +0       Element: C    pdb-name: C    Scat. Types:   7   6 Mass=12.010700000 B-factor:1.000   
                 Charge=0.197525000    (av)  Polarization=0.997655710  [A^3] (considered a charged atom and polarizable)  Interactions: yes
                 Anisotropic factor:    0.000 [-] (Relative), Radius:    0.880 [A], Framework-atom: yes (charge from structure file)
Pseudo Atom[  71] Name C71      Oxidation: +0       Element: C    pdb-name: C    Scat. Types:   7   6 Mass=12.010700000 B-factor:1.000   
                 Charge=-0.123110000   (av)  Polarization=1.099264800  [A^3] (considered a charged atom and polarizable)  Interactions: yes
                 Anisotropic factor:    0.000 [-] (Relative), Radius:    0.880 [A], Framework-atom: yes (charge from structure file)
Pseudo Atom[  72] Name C72      Oxidation: +0       Element: C    pdb-name: C    Scat. Types:   7   6 Mass=12.010700000 B-factor:1.000   
                 Charge=0.205319000    (av)  Polarization=1.000244640  [A^3] (considered a charged atom and polarizable)  Interactions: yes
                 Anisotropic factor:    0.000 [-] (Relative), Radius:    0.880 [A], Framework-atom: yes (charge from structure file)
Pseudo Atom[  73] Name C73      Oxidation: +0       Element: C    pdb-name: C    Scat. Types:   7   6 Mass=12.010700000 B-factor:1.000   
                 Charge=-0.418422000   (av)  Polarization=1.127035950  [A^3] (considered a charged atom and polarizable)  Interactions: yes
                 Anisotropic factor:    0.000 [-] (Relative), Radius:    0.880 [A], Framework-atom: yes (charge from structure file)
Pseudo Atom[  74] Name C74      Oxidation: +0       Element: C    pdb-name: C    Scat. Types:   7   6 Mass=12.010700000 B-factor:1.000   
                 Charge=-0.237780000   (av)  Polarization=1.117596290  [A^3] (considered a charged atom and polarizable)  Interactions: yes
                 Anisotropic factor:    0.000 [-] (Relative), Radius:    0.880 [A], Framework-atom: yes (charge from structure file)
Pseudo Atom[  75] Name C75      Oxidation: +0       Element: C    pdb-name: C    Scat. Types:   7   6 Mass=12.010700000 B-factor:1.000   
                 Charge=0.267273000    (av)  Polarization=0.992555190  [A^3] (considered a charged atom and polarizable)  Interactions: yes
                 Anisotropic factor:    0.000 [-] (Relative), Radius:    0.880 [A], Framework-atom: yes (charge from structure file)
Pseudo Atom[  76] Name C76      Oxidation: +0       Element: C    pdb-name: C    Scat. Types:   7   6 Mass=12.010700000 B-factor:1.000   
                 Charge=-0.191013000   (av)  Polarization=1.120436100  [A^3] (considered a charged atom and polarizable)  Interactions: yes
                 Anisotropic factor:    0.000 [-] (Relative), Radius:    0.880 [A], Framework-atom: yes (charge from structure file)
Pseudo Atom[  77] Name C77      Oxidation: +0       Element: C    pdb-name: C    Scat. Types:   7   6 Mass=12.010700000 B-factor:1.000   
                 Charge=-0.022099000   (av)  Polarization=1.059569510  [A^3] (considered a charged atom and polarizable)  Interactions: yes
                 Anisotropic factor:    0.000 [-] (Relative), Radius:    0.880 [A], Framework-atom: yes (charge from structure file)
Pseudo Atom[  78] Name C78      Oxidation: +0       Element: C    pdb-name: C    Scat. Types:   7   6 Mass=12.010700000 B-factor:1.000   
                 Charge=-0.205779000   (av)  Polarization=1.116730300  [A^3] (considered a charged atom and polarizable)  Interactions: yes
                 Anisotropic factor:    0.000 [-] (Relative), Radius:    0.880 [A], Framework-atom: yes (charge from structure file)
Pseudo Atom[  79] Name C79      Oxidation: +0       Element: C    pdb-name: C    Scat. Types:   7   6 Mass=12.010700000 B-factor:1.000   
                 Charge=0.273140000    (av)  Polarization=0.991419940  [A^3] (considered a charged atom and polarizable)  Interactions: yes
                 Anisotropic factor:    0.000 [-] (Relative), Radius:    0.880 [A], Framework-atom: yes (charge from structure file)
Pseudo Atom[  80] Name C80      Oxidation: +0       Element: C    pdb-name: C    Scat. Types:   7   6 Mass=12.010700000 B-factor:1.000   
                 Charge=-0.248839000   (av)  Polarization=1.165851470  [A^3] (considered a charged atom and polarizable)  Interactions: yes
                 Anisotropic factor:    0.000 [-] (Relative), Radius:    0.880 [A], Framework-atom: yes (charge from structure file)
Pseudo Atom[  81] Name C81      Oxidation: +0       Element: C    pdb-name: C    Scat. Types:   7   6 Mass=12.010700000 B-factor:1.000   
                 Charge=-0.426004000   (av)  Polarization=1.103018620  [A^3] (considered a charged atom and polarizable)  Interactions: yes
                 Anisotropic factor:    0.000 [-] (Relative), Radius:    0.880 [A], Framework-atom: yes (charge from structure file)
Pseudo Atom[  82] Name C82      Oxidation: +0       Element: C    pdb-name: C    Scat. Types:   7   6 Mass=12.010700000 B-factor:1.000   
                 Charge=0.203447000    (av)  Polarization=1.009952370  [A^3] (considered a charged atom and polarizable)  Interactions: yes
                 Anisotropic factor:    0.000 [-] (Relative), Radius:    0.880 [A], Framework-atom: yes (charge from structure file)
Pseudo Atom[  83] Name C83      Oxidation: +0       Element: C    pdb-name: C    Scat. Types:   7   6 Mass=12.010700000 B-factor:1.000   
                 Charge=-0.126218000   (av)  Polarization=1.168449440  [A^3] (considered a charged atom and polarizable)  Interactions: yes
                 Anisotropic factor:    0.000 [-] (Relative), Radius:    0.880 [A], Framework-atom: yes (charge from structure file)
Pseudo Atom[  84] Name C84      Oxidation: +0       Element: C    pdb-name: C    Scat. Types:   7   6 Mass=12.010700000 B-factor:1.000   
                 Charge=0.193419000    (av)  Polarization=1.046209620  [A^3] (considered a charged atom and polarizable)  Interactions: yes
                 Anisotropic factor:    0.000 [-] (Relative), Radius:    0.880 [A], Framework-atom: yes (charge from structure file)
Pseudo Atom[  85] Name C85      Oxidation: +0       Element: C    pdb-name: C    Scat. Types:   7   6 Mass=12.010700000 B-factor:1.000   
                 Charge=-0.417658000   (av)  Polarization=1.099085940  [A^3] (considered a charged atom and polarizable)  Interactions: yes
                 Anisotropic factor:    0.000 [-] (Relative), Radius:    0.880 [A], Framework-atom: yes (charge from structure file)
Pseudo Atom[  86] Name C86      Oxidation: +0       Element: C    pdb-name: C    Scat. Types:   7   6 Mass=12.010700000 B-factor:1.000   
                 Charge=-0.135094000   (av)  Polarization=1.304518750  [A^3] (considered a charged atom and polarizable)  Interactions: yes
                 Anisotropic factor:    0.000 [-] (Relative), Radius:    0.880 [A], Framework-atom: yes (charge from structure file)
Pseudo Atom[  87] Name C87      Oxidation: +0       Element: C    pdb-name: C    Scat. Types:   7   6 Mass=12.010700000 B-factor:1.000   
                 Charge=-0.161575000   (av)  Polarization=1.294754410  [A^3] (considered a charged atom and polarizable)  Interactions: yes
                 Anisotropic factor:    0.000 [-] (Relative), Radius:    0.880 [A], Framework-atom: yes (charge from structure file)
Pseudo Atom[  88] Name C88      Oxidation: +0       Element: C    pdb-name: C    Scat. Types:   7   6 Mass=12.010700000 B-factor:1.000   
                 Charge=-0.140703000   (av)  Polarization=1.281205730  [A^3] (considered a charged atom and polarizable)  Interactions: yes
                 Anisotropic factor:    0.000 [-] (Relative), Radius:    0.880 [A], Framework-atom: yes (charge from structure file)
Pseudo Atom[  89] Name N89      Oxidation: +0       Element: N    pdb-name: N    Scat. Types:   8   7 Mass=14.006700000 B-factor:1.000   
                 Charge=-0.186314000   (av)  Polarization=1.096042670  [A^3] (considered a charged atom and polarizable)  Interactions: yes
                 Anisotropic factor:    0.000 [-] (Relative), Radius:    0.860 [A], Framework-atom: yes (charge from structure file)
Pseudo Atom[  90] Name N90      Oxidation: +0       Element: N    pdb-name: N    Scat. Types:   8   7 Mass=14.006700000 B-factor:1.000   
                 Charge=-0.152270000   (av)  Polarization=0.957031010  [A^3] (considered a charged atom and polarizable)  Interactions: yes
                 Anisotropic factor:    0.000 [-] (Relative), Radius:    0.860 [A], Framework-atom: yes (charge from structure file)
Pseudo Atom[  91] Name N91      Oxidation: +0       Element: N    pdb-name: N    Scat. Types:   8   7 Mass=14.006700000 B-factor:1.000   
                 Charge=-0.297352000   (av)  Polarization=1.162238280  [A^3] (considered a charged atom and polarizable)  Interactions: yes
                 Anisotropic factor:    0.000 [-] (Relative), Radius:    0.860 [A], Framework-atom: yes (charge from structure file)
Pseudo Atom[  92] Name N92      Oxidation: +0       Element: N    pdb-name: N    Scat. Types:   8   7 Mass=14.006700000 B-factor:1.000   
                 Charge=-0.149545000   (av)  Polarization=0.947643500  [A^3] (considered a charged atom and polarizable)  Interactions: yes
                 Anisotropic factor:    0.000 [-] (Relative), Radius:    0.860 [A], Framework-atom: yes (charge from structure file)
Pseudo Atom[  93] Name N93      Oxidation: +0       Element: N    pdb-name: N    Scat. Types:   8   7 Mass=14.006700000 B-factor:1.000   
                 Charge=-0.204960000   (av)  Polarization=1.134682730  [A^3] (considered a charged atom and polarizable)  Interactions: yes
                 Anisotropic factor:    0.000 [-] (Relative), Radius:    0.860 [A], Framework-atom: yes (charge from structure file)
Pseudo Atom[  94] Name N94      Oxidation: +0       Element: N    pdb-name: N    Scat. Types:   8   7 Mass=14.006700000 B-factor:1.000   
                 Charge=-0.332592000   (av)  Polarization=1.294782860  [A^3] (considered a charged atom and polarizable)  Interactions: yes
                 Anisotropic factor:    0.000 [-] (Relative), Radius:    0.860 [A], Framework-atom: yes (charge from structure file)
Pseudo Atom[  95] Name N95      Oxidation: +0       Element: N    pdb-name: N    Scat. Types:   8   7 Mass=14.006700000 B-factor:1.000   
                 Charge=-0.311032000   (av)  Polarization=1.304771110  [A^3] (considered a charged atom and polarizable)  Interactions: yes
                 Anisotropic factor:    0.000 [-] (Relative), Radius:    0.860 [A], Framework-atom: yes (charge from structure file)
Pseudo Atom[  96] Name N96      Oxidation: +0       Element: N    pdb-name: N    Scat. Types:   8   7 Mass=14.006700000 B-factor:1.000   
                 Charge=-0.338892000   (av)  Polarization=1.285449450  [A^3] (considered a charged atom and polarizable)  Interactions: yes
                 Anisotropic factor:    0.000 [-] (Relative), Radius:    0.860 [A], Framework-atom: yes (charge from structure file)
Pseudo Atom[  97] Name N97      Oxidation: +0       Element: N    pdb-name: N    Scat. Types:   8   7 Mass=14.006700000 B-factor:1.000   
                 Charge=-0.186310000   (av)  Polarization=1.096022520  [A^3] (considered a charged atom and polarizable)  Interactions: yes
                 Anisotropic factor:    0.000 [-] (Relative), Radius:    0.860 [A], Framework-atom: yes (charge from structure file)
Pseudo Atom[  98] Name N98      Oxidation: +0       Element: N    pdb-name: N    Scat. Types:   8   7 Mass=14.006700000 B-factor:1.000   
                 Charge=-0.152140000   (av)  Polarization=0.956984030  [A^3] (considered a charged atom and polarizable)  Interactions: yes
                 Anisotropic factor:    0.000 [-] (Relative), Radius:    0.860 [A], Framework-atom: yes (charge from structure file)
Pseudo Atom[  99] Name N99      Oxidation: +0       Element: N    pdb-name: N    Scat. Types:   8   7 Mass=14.006700000 B-factor:1.000   
                 Charge=-0.297295000   (av)  Polarization=1.162179600  [A^3] (considered a charged atom and polarizable)  Interactions: yes
                 Anisotropic factor:    0.000 [-] (Relative), Radius:    0.860 [A], Framework-atom: yes (charge from structure file)
Pseudo Atom[ 100] Name N100     Oxidation: +0       Element: N    pdb-name: N    Scat. Types:   8   7 Mass=14.006700000 B-factor:1.000   
                 Charge=-0.149553000   (av)  Polarization=0.947625130  [A^3] (considered a charged atom and polarizable)  Interactions: yes
                 Anisotropic factor:    0.000 [-] (Relative), Radius:    0.860 [A], Framework-atom: yes (charge from structure file)
Pseudo Atom[ 101] Name N101     Oxidation: +0       Element: N    pdb-name: N    Scat. Types:   8   7 Mass=14.006700000 B-factor:1.000   
                 Charge=-0.204831000   (av)  Polarization=1.134601670  [A^3] (considered a charged atom and polarizable)  Interactions: yes
                 Anisotropic factor:    0.000 [-] (Relative), Radius:    0.860 [A], Framework-atom: yes (charge from structure file)
Pseudo Atom[ 102] Name N102     Oxidation: +0       Element: N    pdb-name: N    Scat. Types:   8   7 Mass=14.006700000 B-factor:1.000   
                 Charge=-0.332642000   (av)  Polarization=1.294731290  [A^3] (considered a charged atom and polarizable)  Interactions: yes
                 Anisotropic factor:    0.000 [-] (Relative), Radius:    0.860 [A], Framework-atom: yes (charge from structure file)
Pseudo Atom[ 103] Name N103     Oxidation: +0       Element: N    pdb-name: N    Scat. Types:   8   7 Mass=14.006700000 B-factor:1.000   
                 Charge=-0.311050000   (av)  Polarization=1.304729910  [A^3] (considered a charged atom and polarizable)  Interactions: yes
                 Anisotropic factor:    0.000 [-] (Relative), Radius:    0.860 [A], Framework-atom: yes (charge from structure file)
Pseudo Atom[ 104] Name N104     Oxidation: +0       Element: N    pdb-name: N    Scat. Types:   8   7 Mass=14.006700000 B-factor:1.000   
                 Charge=-0.338850000   (av)  Polarization=1.285315190  [A^3] (considered a charged atom and polarizable)  Interactions: yes
                 Anisotropic factor:    0.000 [-] (Relative), Radius:    0.860 [A], Framework-atom: yes (charge from structure file)
Pseudo Atom[ 105] Name He       Oxidation: +0       Element: He   pdb-name: He   Scat. Types:   3   2 Mass=4.002602000  B-factor:1.000   
                 Charge=0.000000000          Polarization=0.000000000  [A^3] (considered a chargeless atom and no polarization)  Interactions: yes
                 Anisotropic factor:    0.000 [-] (Relative), Radius:    1.000 [A], Framework-atom:  no
Pseudo Atom[ 106] Name CH4_sp3  Oxidation: +0       Element: C    pdb-name: C    Scat. Types:   7   6 Mass=16.042460000 B-factor:1.000   
                 Charge=0.000000000          Polarization=0.000000000  [A^3] (considered a chargeless atom and no polarization)  Interactions: yes
                 Anisotropic factor:    0.000 [-] (Relative), Radius:    1.000 [A], Framework-atom:  no
Pseudo Atom[ 107] Name CH3_sp3  Oxidation: +0       Element: C    pdb-name: C    Scat. Types:   7   6 Mass=15.034520000 B-factor:1.000   
                 Charge=0.000000000          Polarization=0.000000000  [A^3] (considered a chargeless atom and no polarization)  Interactions: yes
                 Anisotropic factor:    0.000 [-] (Relative), Radius:    1.000 [A], Framework-atom:  no
Pseudo Atom[ 108] Name CH2_sp3  Oxidation: +0       Element: C    pdb-name: C    Scat. Types:   7   6 Mass=14.026580000 B-factor:1.000   
                 Charge=0.000000000          Polarization=0.000000000  [A^3] (considered a chargeless atom and no polarization)  Interactions: yes
                 Anisotropic factor:    0.000 [-] (Relative), Radius:    1.000 [A], Framework-atom:  no
Pseudo Atom[ 109] Name CH_sp3   Oxidation: +0       Element: C    pdb-name: C    Scat. Types:   7   6 Mass=13.018640000 B-factor:1.000   
                 Charge=0.000000000          Polarization=0.000000000  [A^3] (considered a chargeless atom and no polarization)  Interactions: yes
                 Anisotropic factor:    0.000 [-] (Relative), Radius:    1.000 [A], Framework-atom:  no
Pseudo Atom[ 110] Name C_sp3    Oxidation: +0       Element: C    pdb-name: C    Scat. Types:   7   6 Mass=12.000000000 B-factor:1.000   
                 Charge=0.000000000          Polarization=0.000000000  [A^3] (considered a chargeless atom and no polarization)  Interactions: yes
                 Anisotropic factor:    0.000 [-] (Relative), Radius:    1.000 [A], Framework-atom:  no
Pseudo Atom[ 111] Name H_h2     Oxidation: +0       Element: H    pdb-name: H    Scat. Types:   1   1 Mass=1.007940000  B-factor:1.000   
                 Charge=0.468000000          Polarization=0.000000000  [A^3] (considered a charged atom and no polarization)  Interactions:  no
                 Anisotropic factor:    0.000 [-] (Relative), Radius:    0.700 [A], Framework-atom:  no
Pseudo Atom[ 112] Name H_com    Oxidation: +0       Element: H    pdb-name: H    Scat. Types:   1   1 Mass=0.000000000  B-factor:1.000   
                 Charge=-0.936000000         Polarization=0.000000000  [A^3] (considered a charged atom and no polarization)  Interactions: yes
                 Anisotropic factor:    0.000 [-] (Relative), Radius:    0.700 [A], Framework-atom:  no
Pseudo Atom[ 113] Name C_co2    Oxidation: +0       Element: C    pdb-name: C    Scat. Types:   7   6 Mass=12.000000000 B-factor:1.000   
                 Charge=0.700000000          Polarization=0.000000000  [A^3] (considered a charged atom and no polarization)  Interactions: yes
                 Anisotropic factor:    0.000 [-] (Relative), Radius:    0.720 [A], Framework-atom:  no
Pseudo Atom[ 114] Name O_co2    Oxidation: +0       Element: O    pdb-name: O    Scat. Types:   9   8 Mass=15.999400000 B-factor:1.000   
                 Charge=-0.350000000         Polarization=0.000000000  [A^3] (considered a charged atom and no polarization)  Interactions: yes
                 Anisotropic factor:    0.000 [-] (Relative), Radius:    0.680 [A], Framework-atom:  no
Pseudo Atom[ 115] Name O_o2     Oxidation: +0       Element: O    pdb-name: O    Scat. Types:   9   8 Mass=15.999400000 B-factor:1.000   
                 Charge=-0.112000000         Polarization=0.000000000  [A^3] (considered a charged atom and no polarization)  Interactions:  no
                 Anisotropic factor:    0.000 [-] (Relative), Radius:    0.700 [A], Framework-atom:  no
Pseudo Atom[ 116] Name O_com    Oxidation: +0       Element: -    pdb-name: O    Scat. Types:   0   8 Mass=0.000000000  B-factor:1.000   
                 Charge=0.224000000          Polarization=0.000000000  [A^3] (considered a charged atom and no polarization)  Interactions:  no
                 Anisotropic factor:    0.000 [-] (Relative), Radius:    0.700 [A], Framework-atom:  no
Pseudo Atom[ 117] Name N_n2     Oxidation: +0       Element: N    pdb-name: N    Scat. Types:   8   7 Mass=14.006740000 B-factor:1.000   
                 Charge=-0.404800000         Polarization=0.000000000  [A^3] (considered a charged atom and no polarization)  Interactions: yes
                 Anisotropic factor:    0.000 [-] (Relative), Radius:    0.700 [A], Framework-atom:  no
Pseudo Atom[ 118] Name N_com    Oxidation: +0       Element: -    pdb-name: N    Scat. Types:   0   7 Mass=0.000000000  B-factor:1.000   
                 Charge=0.809600000          Polarization=0.000000000  [A^3] (considered a charged atom and no polarization)  Interactions:  no
                 Anisotropic factor:    0.000 [-] (Relative), Radius:    0.700 [A], Framework-atom:  no
Pseudo Atom[ 119] Name Ar       Oxidation: +0       Element: Ar   pdb-name: Ar   Scat. Types:  19  18 Mass=39.948000000 B-factor:1.000   
                 Charge=0.000000000          Polarization=0.000000000  [A^3] (considered a chargeless atom and no polarization)  Interactions: yes
                 Anisotropic factor:    0.000 [-] (Relative), Radius:    0.700 [A], Framework-atom:  no
Pseudo Atom[ 120] Name Ow       Oxidation: +0       Element: O    pdb-name: O    Scat. Types:   9   8 Mass=15.999400000 B-factor:1.000   
                 Charge=0.000000000          Polarization=0.000000000  [A^3] (considered a chargeless atom and no polarization)  Interactions: yes
                 Anisotropic factor:    0.000 [-] (Relative), Radius:    0.500 [A], Framework-atom:  no
Pseudo Atom[ 121] Name Hw       Oxidation: +0       Element: H    pdb-name: H    Scat. Types:   1   1 Mass=1.007940000  B-factor:1.000   
                 Charge=0.241000000          Polarization=0.000000000  [A^3] (considered a charged atom and no polarization)  Interactions:  no
                 Anisotropic factor:    0.000 [-] (Relative), Radius:    1.000 [A], Framework-atom:  no
Pseudo Atom[ 122] Name Hw       Oxidation: +0       Element: H    pdb-name: H    Scat. Types:   1   1 Mass=1.007940000  B-factor:1.000   
                 Charge=0.241000000          Polarization=0.000000000  [A^3] (considered a charged atom and no polarization)  Interactions:  no
                 Anisotropic factor:    0.000 [-] (Relative), Radius:    1.000 [A], Framework-atom:  no
Pseudo Atom[ 123] Name Lw       Oxidation: +0       Element: H    pdb-name: L    Scat. Types:   1   3 Mass=0.000000000  B-factor:1.000   
                 Charge=-0.241000000         Polarization=0.000000000  [A^3] (considered a charged atom and no polarization)  Interactions:  no
                 Anisotropic factor:    0.000 [-] (Relative), Radius:    1.000 [A], Framework-atom:  no
Pseudo Atom[ 124] Name Lw       Oxidation: +0       Element: H    pdb-name: L    Scat. Types:   1   3 Mass=0.000000000  B-factor:1.000   
                 Charge=-0.241000000         Polarization=0.000000000  [A^3] (considered a charged atom and no polarization)  Interactions:  no
                 Anisotropic factor:    0.000 [-] (Relative), Radius:    1.000 [A], Framework-atom:  no
Pseudo Atom[ 125] Name C_benz   Oxidation: +0       Element: C    pdb-name: C    Scat. Types:   7   6 Mass=12.000000000 B-factor:1.000   
                 Charge=-0.095000000         Polarization=0.000000000  [A^3] (considered a charged atom and no polarization)  Interactions: yes
                 Anisotropic factor:    0.000 [-] (Relative), Radius:    0.700 [A], Framework-atom:  no
Pseudo Atom[ 126] Name H_benz   Oxidation: +0       Element: H    pdb-name: H    Scat. Types:   1   1 Mass=1.007940000  B-factor:1.000   
                 Charge=0.095000000          Polarization=0.000000000  [A^3] (considered a charged atom and no polarization)  Interactions: yes
                 Anisotropic factor:    0.000 [-] (Relative), Radius:    0.320 [A], Framework-atom:  no
Pseudo Atom[ 127] Name N_dmf    Oxidation: +0       Element: N    pdb-name: N    Scat. Types:   8   7 Mass=14.006740000 B-factor:1.000   
                 Charge=-0.570000000         Polarization=0.000000000  [A^3] (considered a charged atom and no polarization)  Interactions: yes
                 Anisotropic factor:    0.000 [-] (Relative), Radius:    0.500 [A], Framework-atom:  no
Pseudo Atom[ 128] Name Co_dmf   Oxidation: +0       Element: C    pdb-name: C    Scat. Types:   7   6 Mass=12.000000000 B-factor:1.000   
                 Charge=0.450000000          Polarization=0.000000000  [A^3] (considered a charged atom and no polarization)  Interactions: yes
                 Anisotropic factor:    0.000 [-] (Relative), Radius:    0.520 [A], Framework-atom:  no
Pseudo Atom[ 129] Name Cm_dmf   Oxidation: +0       Element: C    pdb-name: C    Scat. Types:   7   6 Mass=12.000000000 B-factor:1.000   
                 Charge=0.280000000          Polarization=0.000000000  [A^3] (considered a charged atom and no polarization)  Interactions: yes
                 Anisotropic factor:    0.000 [-] (Relative), Radius:    0.520 [A], Framework-atom:  no
Pseudo Atom[ 130] Name O_dmf    Oxidation: +0       Element: O    pdb-name: O    Scat. Types:   9   8 Mass=15.999400000 B-factor:1.000   
                 Charge=-0.500000000         Polarization=0.000000000  [A^3] (considered a charged atom and no polarization)  Interactions: yes
                 Anisotropic factor:    0.000 [-] (Relative), Radius:    0.780 [A], Framework-atom:  no
Pseudo Atom[ 131] Name H_dmf    Oxidation: +0       Element: H    pdb-name: H    Scat. Types:   1   1 Mass=1.007940000  B-factor:1.000   
                 Charge=0.060000000          Polarization=0.000000000  [A^3] (considered a charged atom and no polarization)  Interactions: yes
                 Anisotropic factor:    0.000 [-] (Relative), Radius:    0.220 [A], Framework-atom:  no
Pseudo Atom[ 132] Name Na       Oxidation: +0       Element: Na   pdb-name: Na   Scat. Types:  12  11 Mass=22.989770000 B-factor:1.000   
                 Charge=1.000000000          Polarization=0.000000000  [A^3] (considered a charged atom and no polarization)  Interactions:  no
                 Anisotropic factor:    0.000 [-] (Relative), Radius:    1.000 [A], Framework-atom:  no
Pseudo Atom[ 133] Name Cl       Oxidation: +0       Element: Cl   pdb-name: Cl   Scat. Types:  18  17 Mass=22.989770000 B-factor:1.000   
                 Charge=-1.000000000         Polarization=0.000000000  [A^3] (considered a charged atom and no polarization)  Interactions:  no
                 Anisotropic factor:    0.000 [-] (Relative), Radius:    1.000 [A], Framework-atom:  no
Pseudo Atom[ 134] Name Kr       Oxidation: +0       Element: Kr   pdb-name: Kr   Scat. Types:  37  36 Mass=83.798000000 B-factor:1.000   
                 Charge=0.000000000          Polarization=0.000000000  [A^3] (considered a chargeless atom and no polarization)  Interactions: yes
                 Anisotropic factor:    0.000 [-] (Relative), Radius:    1.000 [A], Framework-atom:  no
Pseudo Atom[ 135] Name Xe       Oxidation: +0       Element: Xe   pdb-name: Xe   Scat. Types:  55  54 Mass=131.293000000 B-factor:1.000   
                 Charge=0.000000000          Polarization=0.000000000  [A^3] (considered a chargeless atom and no polarization)  Interactions: yes
                 Anisotropic factor:    0.000 [-] (Relative), Radius:    1.000 [A], Framework-atom:  no


Forcefield: Local
===========================================================================
Minimal distance: 1
CutOff VDW : 8.000000 (64.000000)
CutOff VDW switching on: 7.200000 (51.840000)
CutOff charge-charge : 12.000000 (144.000000)
CutOff charge-charge switching on: 7.800000 (60.840000)
CutOff charge-bonddipole : 12.000000 (144.000000)
CutOff charge-bondipole switching on: 8.400000 (70.560000)
CutOff bonddipole-bonddipole : 12.000000 (144.000000)
CutOff bonddipole-bondipole switching on: 9.000000 (81.000000)
Polarization is computed
Framework-Framework polarization is ommited
Adsorbate-Adsorbate polarization is ommited
Cation-Cation polarization is ommited
Adsorbate-Cation polarization is included
Back polarization is neglected
All potentials are shifted to zero at the Cutoff

General mixing rule: Lorentz-Berthelot mixing rules are used FIRST for cross terms
0 cross terms are overwritten using the individual mixing rules from the file 'force_field_mixing_rules.def'
and then 0 terms are overwritten using the specific interactions from the file 'force_field.def'

The force field and all the interactions:
    Cu1 -     Cu1 [LENNARD_JONES] p_0/k_B: 134.05000 [K], p_1: 3.97600 [A], shift/k_B:  -7.95921294 [K], tailcorrection: no
    Cu1 -     Cu2 [LENNARD_JONES] p_0/k_B: 137.73291 [K], p_1: 3.97550 [A], shift/k_B:  -8.17181124 [K], tailcorrection: no
    Cu1 -     Cu3 [LENNARD_JONES] p_0/k_B: 135.85140 [K], p_1: 3.96950 [A], shift/k_B:  -7.98856748 [K], tailcorrection: no
    Cu1 -     Cu4 [LENNARD_JONES] p_0/k_B: 134.05000 [K], p_1: 3.97600 [A], shift/k_B:  -7.95921294 [K], tailcorrection: no
    Cu1 -     Cu5 [LENNARD_JONES] p_0/k_B: 137.73242 [K], p_1: 3.97550 [A], shift/k_B:  -8.17178237 [K], tailcorrection: no
    Cu1 -     Cu6 [LENNARD_JONES] p_0/k_B: 135.85189 [K], p_1: 3.96950 [A], shift/k_B:  -7.98859649 [K], tailcorrection: no
    Cu1 -      H7 [LENNARD_JONES] p_0/k_B:  32.37494 [K], p_1: 3.45250 [A], shift/k_B:  -0.83122074 [K], tailcorrection: no
    Cu1 -      H8 [LENNARD_JONES] p_0/k_B:  30.94814 [K], p_1: 3.44650 [A], shift/k_B:  -0.78639143 [K], tailcorrection: no
    Cu1 -      H9 [LENNARD_JONES] p_0/k_B:  29.17793 [K], p_1: 3.44900 [A], shift/k_B:  -0.74462223 [K], tailcorrection: no
    Cu1 -     H10 [LENNARD_JONES] p_0/k_B:  25.99769 [K], p_1: 3.40550 [A], shift/k_B:  -0.61510360 [K], tailcorrection: no
    Cu1 -     H11 [LENNARD_JONES] p_0/k_B:  27.78719 [K], p_1: 3.41300 [A], shift/k_B:  -0.66612536 [K], tailcorrection: no
    Cu1 -     H12 [LENNARD_JONES] p_0/k_B:  32.24633 [K], p_1: 3.46400 [A], shift/k_B:  -0.84449275 [K], tailcorrection: no
    Cu1 -     H13 [LENNARD_JONES] p_0/k_B:  33.79109 [K], p_1: 3.45600 [A], shift/k_B:  -0.87283598 [K], tailcorrection: no
    Cu1 -     H14 [LENNARD_JONES] p_0/k_B:  29.67899 [K], p_1: 3.45950 [A], shift/k_B:  -0.77125831 [K], tailcorrection: no
    Cu1 -     H15 [LENNARD_JONES] p_0/k_B:  31.66958 [K], p_1: 3.46650 [A], shift/k_B:  -0.83296223 [K], tailcorrection: no
    Cu1 -     H16 [LENNARD_JONES] p_0/k_B:  34.19529 [K], p_1: 3.48850 [A], shift/k_B:  -0.93394770 [K], tailcorrection: no
    Cu1 -     H17 [LENNARD_JONES] p_0/k_B:  30.01136 [K], p_1: 3.46550 [A], shift/k_B:  -0.78799230 [K], tailcorrection: no
    Cu1 -     H18 [LENNARD_JONES] p_0/k_B:  31.24772 [K], p_1: 3.46200 [A], shift/k_B:  -0.81552831 [K], tailcorrection: no
    Cu1 -     H19 [LENNARD_JONES] p_0/k_B:  30.70898 [K], p_1: 3.46400 [A], shift/k_B:  -0.80423150 [K], tailcorrection: no
    Cu1 -     H20 [LENNARD_JONES] p_0/k_B:  28.16572 [K], p_1: 3.45000 [A], shift/k_B:  -0.72003389 [K], tailcorrection: no
    Cu1 -     H21 [LENNARD_JONES] p_0/k_B:  29.08129 [K], p_1: 3.46700 [A], shift/k_B:  -0.76554379 [K], tailcorrection: no
    Cu1 -     H22 [LENNARD_JONES] p_0/k_B:  34.21293 [K], p_1: 3.46200 [A], shift/k_B:  -0.89291669 [K], tailcorrection: no
    Cu1 -     H23 [LENNARD_JONES] p_0/k_B:  29.38850 [K], p_1: 3.45300 [A], shift/k_B:  -0.75519607 [K], tailcorrection: no
    Cu1 -     H24 [LENNARD_JONES] p_0/k_B:  33.40006 [K], p_1: 3.48100 [A], shift/k_B:  -0.90060391 [K], tailcorrection: no
    Cu1 -     H25 [LENNARD_JONES] p_0/k_B:  32.16308 [K], p_1: 3.46200 [A], shift/k_B:  -0.83941809 [K], tailcorrection: no
    Cu1 -     H26 [LENNARD_JONES] p_0/k_B:  31.40605 [K], p_1: 3.46150 [A], shift/k_B:  -0.81895509 [K], tailcorrection: no
    Cu1 -     H27 [LENNARD_JONES] p_0/k_B:  33.56421 [K], p_1: 3.44800 [A], shift/k_B:  -0.85508093 [K], tailcorrection: no
    Cu1 -     H28 [LENNARD_JONES] p_0/k_B:  32.37701 [K], p_1: 3.45250 [A], shift/k_B:  -0.83127389 [K], tailcorrection: no
    Cu1 -     H29 [LENNARD_JONES] p_0/k_B:  30.94814 [K], p_1: 3.44650 [A], shift/k_B:  -0.78639143 [K], tailcorrection: no
    Cu1 -     H30 [LENNARD_JONES] p_0/k_B:  29.17563 [K], p_1: 3.44900 [A], shift/k_B:  -0.74456361 [K], tailcorrection: no
    Cu1 -     H31 [LENNARD_JONES] p_0/k_B:  25.99769 [K], p_1: 3.40550 [A], shift/k_B:  -0.61510360 [K], tailcorrection: no
    Cu1 -     H32 [LENNARD_JONES] p_0/k_B:  27.78237 [K], p_1: 3.41300 [A], shift/k_B:  -0.66600970 [K], tailcorrection: no
    Cu1 -     H33 [LENNARD_JONES] p_0/k_B:  32.24633 [K], p_1: 3.46400 [A], shift/k_B:  -0.84449275 [K], tailcorrection: no
    Cu1 -     H34 [LENNARD_JONES] p_0/k_B:  33.79308 [K], p_1: 3.45600 [A], shift/k_B:  -0.87288722 [K], tailcorrection: no
    Cu1 -     H35 [LENNARD_JONES] p_0/k_B:  29.68125 [K], p_1: 3.45950 [A], shift/k_B:  -0.77131699 [K], tailcorrection: no
    Cu1 -     H36 [LENNARD_JONES] p_0/k_B:  31.66746 [K], p_1: 3.46650 [A], shift/k_B:  -0.83290656 [K], tailcorrection: no
    Cu1 -     H37 [LENNARD_JONES] p_0/k_B:  34.19529 [K], p_1: 3.48850 [A], shift/k_B:  -0.93394770 [K], tailcorrection: no
    Cu1 -     H38 [LENNARD_JONES] p_0/k_B:  30.01136 [K], p_1: 3.46550 [A], shift/k_B:  -0.78799230 [K], tailcorrection: no
    Cu1 -     H39 [LENNARD_JONES] p_0/k_B:  31.24772 [K], p_1: 3.46200 [A], shift/k_B:  -0.81552831 [K], tailcorrection: no
    Cu1 -     H40 [LENNARD_JONES] p_0/k_B:  30.71117 [K], p_1: 3.46400 [A], shift/k_B:  -0.80428866 [K], tailcorrection: no
    Cu1 -     H41 [LENNARD_JONES] p_0/k_B:  28.16810 [K], p_1: 3.45000 [A], shift/k_B:  -0.72009472 [K], tailcorrection: no
    Cu1 -     H42 [LENNARD_JONES] p_0/k_B:  29.08129 [K], p_1: 3.46700 [A], shift/k_B:  -0.76554379 [K], tailcorrection: no
    Cu1 -     H43 [LENNARD_JONES] p_0/k_B:  34.21293 [K], p_1: 3.46200 [A], shift/k_B:  -0.89291669 [K], tailcorrection: no
    Cu1 -     H44 [LENNARD_JONES] p_0/k_B:  29.38850 [K], p_1: 3.45300 [A], shift/k_B:  -0.75519607 [K], tailcorrection: no
    Cu1 -     H45 [LENNARD_JONES] p_0/k_B:  33.40407 [K], p_1: 3.48100 [A], shift/k_B:  -0.90071212 [K], tailcorrection: no
    Cu1 -     H46 [LENNARD_JONES] p_0/k_B:  32.16517 [K], p_1: 3.46200 [A], shift/k_B:  -0.83947248 [K], tailcorrection: no
    Cu1 -     H47 [LENNARD_JONES] p_0/k_B:  31.40605 [K], p_1: 3.46150 [A], shift/k_B:  -0.81895509 [K], tailcorrection: no
    Cu1 -     H48 [LENNARD_JONES] p_0/k_B:  33.56421 [K], p_1: 3.44800 [A], shift/k_B:  -0.85508093 [K], tailcorrection: no
    Cu1 -     C49 [LENNARD_JONES] p_0/k_B:  98.19615 [K], p_1: 3.76800 [A], shift/k_B:  -4.24143098 [K], tailcorrection: no
    Cu1 -     C50 [LENNARD_JONES] p_0/k_B:  94.85976 [K], p_1: 3.74050 [A], shift/k_B:  -3.92300283 [K], tailcorrection: no
    Cu1 -     C51 [LENNARD_JONES] p_0/k_B: 104.39668 [K], p_1: 3.76800 [A], shift/k_B:  -4.50925320 [K], tailcorrection: no
    Cu1 -     C52 [LENNARD_JONES] p_0/k_B:  93.84321 [K], p_1: 3.73850 [A], shift/k_B:  -3.86865955 [K], tailcorrection: no
    Cu1 -     C53 [LENNARD_JONES] p_0/k_B:  96.89822 [K], p_1: 3.76700 [A], shift/k_B:  -4.17878176 [K], tailcorrection: no
    Cu1 -     C54 [LENNARD_JONES] p_0/k_B:  94.53276 [K], p_1: 3.75900 [A], shift/k_B:  -4.02566057 [K], tailcorrection: no
    Cu1 -     C55 [LENNARD_JONES] p_0/k_B:  92.56317 [K], p_1: 3.74000 [A], shift/k_B:  -3.82498848 [K], tailcorrection: no
    Cu1 -     C56 [LENNARD_JONES] p_0/k_B:  98.17090 [K], p_1: 3.76900 [A], shift/k_B:  -4.24702191 [K], tailcorrection: no
    Cu1 -     C57 [LENNARD_JONES] p_0/k_B:  96.41559 [K], p_1: 3.75350 [A], shift/k_B:  -4.07031427 [K], tailcorrection: no
    Cu1 -     C58 [LENNARD_JONES] p_0/k_B:  99.88262 [K], p_1: 3.77000 [A], shift/k_B:  -4.32788079 [K], tailcorrection: no
    Cu1 -     C59 [LENNARD_JONES] p_0/k_B:  93.50263 [K], p_1: 3.73950 [A], shift/k_B:  -3.86074414 [K], tailcorrection: no
    Cu1 -     C60 [LENNARD_JONES] p_0/k_B:  95.49987 [K], p_1: 3.76900 [A], shift/k_B:  -4.13146943 [K], tailcorrection: no
    Cu1 -     C61 [LENNARD_JONES] p_0/k_B:  96.75146 [K], p_1: 3.76150 [A], shift/k_B:  -4.13643210 [K], tailcorrection: no
    Cu1 -     C62 [LENNARD_JONES] p_0/k_B:  93.68738 [K], p_1: 3.74350 [A], shift/k_B:  -3.89300234 [K], tailcorrection: no
    Cu1 -     C63 [LENNARD_JONES] p_0/k_B:  99.87792 [K], p_1: 3.77750 [A], shift/k_B:  -4.37900970 [K], tailcorrection: no
    Cu1 -     C64 [LENNARD_JONES] p_0/k_B:  88.86895 [K], p_1: 3.74500 [A], shift/k_B:  -3.70157375 [K], tailcorrection: no
    Cu1 -     C65 [LENNARD_JONES] p_0/k_B:  94.30561 [K], p_1: 3.75950 [A], shift/k_B:  -4.01915838 [K], tailcorrection: no
    Cu1 -     C66 [LENNARD_JONES] p_0/k_B: 117.52721 [K], p_1: 3.82200 [A], shift/k_B:  -5.52341447 [K], tailcorrection: no
    Cu1 -     C67 [LENNARD_JONES] p_0/k_B: 116.08695 [K], p_1: 3.81800 [A], shift/k_B:  -5.42196588 [K], tailcorrection: no
    Cu1 -     C68 [LENNARD_JONES] p_0/k_B: 114.48642 [K], p_1: 3.81750 [A], shift/k_B:  -5.34306138 [K], tailcorrection: no
    Cu1 -     C69 [LENNARD_JONES] p_0/k_B:  98.19820 [K], p_1: 3.76800 [A], shift/k_B:  -4.24151943 [K], tailcorrection: no
    Cu1 -     C70 [LENNARD_JONES] p_0/k_B:  94.86188 [K], p_1: 3.74050 [A], shift/k_B:  -3.92309049 [K], tailcorrection: no
    Cu1 -     C71 [LENNARD_JONES] p_0/k_B: 104.39219 [K], p_1: 3.76800 [A], shift/k_B:  -4.50905907 [K], tailcorrection: no
    Cu1 -     C72 [LENNARD_JONES] p_0/k_B:  93.84678 [K], p_1: 3.73850 [A], shift/k_B:  -3.86880677 [K], tailcorrection: no
    Cu1 -     C73 [LENNARD_JONES] p_0/k_B:  96.89752 [K], p_1: 3.76700 [A], shift/k_B:  -4.17875193 [K], tailcorrection: no
    Cu1 -     C74 [LENNARD_JONES] p_0/k_B:  94.53347 [K], p_1: 3.75900 [A], shift/k_B:  -4.02569076 [K], tailcorrection: no
    Cu1 -     C75 [LENNARD_JONES] p_0/k_B:  92.56534 [K], p_1: 3.74000 [A], shift/k_B:  -3.82507825 [K], tailcorrection: no
    Cu1 -     C76 [LENNARD_JONES] p_0/k_B:  98.17021 [K], p_1: 3.76900 [A], shift/k_B:  -4.24699238 [K], tailcorrection: no
    Cu1 -     C77 [LENNARD_JONES] p_0/k_B:  96.41628 [K], p_1: 3.75350 [A], shift/k_B:  -4.07034362 [K], tailcorrection: no
    Cu1 -     C78 [LENNARD_JONES] p_0/k_B:  99.88329 [K], p_1: 3.77000 [A], shift/k_B:  -4.32790986 [K], tailcorrection: no
    Cu1 -     C79 [LENNARD_JONES] p_0/k_B:  93.50191 [K], p_1: 3.73950 [A], shift/k_B:  -3.86071454 [K], tailcorrection: no
    Cu1 -     C80 [LENNARD_JONES] p_0/k_B:  95.49987 [K], p_1: 3.76900 [A], shift/k_B:  -4.13146943 [K], tailcorrection: no
    Cu1 -     C81 [LENNARD_JONES] p_0/k_B:  96.75146 [K], p_1: 3.76150 [A], shift/k_B:  -4.13643210 [K], tailcorrection: no
    Cu1 -     C82 [LENNARD_JONES] p_0/k_B:  93.68953 [K], p_1: 3.74350 [A], shift/k_B:  -3.89309152 [K], tailcorrection: no
    Cu1 -     C83 [LENNARD_JONES] p_0/k_B:  99.87591 [K], p_1: 3.77750 [A], shift/k_B:  -4.37892143 [K], tailcorrection: no
    Cu1 -     C84 [LENNARD_JONES] p_0/k_B:  88.87046 [K], p_1: 3.74500 [A], shift/k_B:  -3.70163658 [K], tailcorrection: no
    Cu1 -     C85 [LENNARD_JONES] p_0/k_B:  94.30347 [K], p_1: 3.75950 [A], shift/k_B:  -4.01906751 [K], tailcorrection: no
    Cu1 -     C86 [LENNARD_JONES] p_0/k_B: 117.52265 [K], p_1: 3.82200 [A], shift/k_B:  -5.52320005 [K], tailcorrection: no
    Cu1 -     C87 [LENNARD_JONES] p_0/k_B: 116.08580 [K], p_1: 3.81800 [A], shift/k_B:  -5.42191195 [K], tailcorrection: no
    Cu1 -     C88 [LENNARD_JONES] p_0/k_B: 114.48759 [K], p_1: 3.81750 [A], shift/k_B:  -5.34311602 [K], tailcorrection: no
    Cu1 -     N89 [LENNARD_JONES] p_0/k_B:  99.90409 [K], p_1: 3.76200 [A], shift/k_B:  -4.27458724 [K], tailcorrection: no
    Cu1 -     N90 [LENNARD_JONES] p_0/k_B:  95.34816 [K], p_1: 3.72950 [A], shift/k_B:  -3.87485021 [K], tailcorrection: no
    Cu1 -     N91 [LENNARD_JONES] p_0/k_B: 105.52631 [K], p_1: 3.77750 [A], shift/k_B:  -4.62665548 [K], tailcorrection: no
    Cu1 -     N92 [LENNARD_JONES] p_0/k_B:  94.65180 [K], p_1: 3.72950 [A], shift/k_B:  -3.84655108 [K], tailcorrection: no
    Cu1 -     N93 [LENNARD_JONES] p_0/k_B:  98.98814 [K], p_1: 3.77150 [A], shift/k_B:  -4.29925931 [K], tailcorrection: no
    Cu1 -     N94 [LENNARD_JONES] p_0/k_B: 108.08790 [K], p_1: 3.80450 [A], shift/k_B:  -4.94344397 [K], tailcorrection: no
    Cu1 -     N95 [LENNARD_JONES] p_0/k_B: 107.56326 [K], p_1: 3.80450 [A], shift/k_B:  -4.91944957 [K], tailcorrection: no
    Cu1 -     N96 [LENNARD_JONES] p_0/k_B: 111.39874 [K], p_1: 3.80550 [A], shift/k_B:  -5.10281262 [K], tailcorrection: no
    Cu1 -     N97 [LENNARD_JONES] p_0/k_B:  99.90409 [K], p_1: 3.76200 [A], shift/k_B:  -4.27458724 [K], tailcorrection: no
    Cu1 -     N98 [LENNARD_JONES] p_0/k_B:  95.34534 [K], p_1: 3.72950 [A], shift/k_B:  -3.87473594 [K], tailcorrection: no
    Cu1 -     N99 [LENNARD_JONES] p_0/k_B: 105.52250 [K], p_1: 3.77750 [A], shift/k_B:  -4.62648839 [K], tailcorrection: no
    Cu1 -    N100 [LENNARD_JONES] p_0/k_B:  94.65393 [K], p_1: 3.72950 [A], shift/k_B:  -3.84663741 [K], tailcorrection: no
    Cu1 -    N101 [LENNARD_JONES] p_0/k_B:  98.98544 [K], p_1: 3.77150 [A], shift/k_B:  -4.29914168 [K], tailcorrection: no
    Cu1 -    N102 [LENNARD_JONES] p_0/k_B: 108.08852 [K], p_1: 3.80450 [A], shift/k_B:  -4.94347234 [K], tailcorrection: no
    Cu1 -    N103 [LENNARD_JONES] p_0/k_B: 107.56700 [K], p_1: 3.80450 [A], shift/k_B:  -4.91962056 [K], tailcorrection: no
    Cu1 -    N104 [LENNARD_JONES] p_0/k_B: 111.39994 [K], p_1: 3.80550 [A], shift/k_B:  -5.10286774 [K], tailcorrection: no
    Cu1 -      He [LENNARD_JONES] p_0/k_B:  38.22493 [K], p_1: 3.30800 [A], shift/k_B:  -0.76047230 [K], tailcorrection: no
    Cu1 - CH4_sp3 [LENNARD_JONES] p_0/k_B: 145.76325 [K], p_1: 3.84800 [A], shift/k_B:  -7.13126360 [K], tailcorrection: no
    Cu1 - CH3_sp3 [LENNARD_JONES] p_0/k_B: 120.32207 [K], p_1: 3.86800 [A], shift/k_B:  -6.07015892 [K], tailcorrection: no
    Cu1 - CH2_sp3 [LENNARD_JONES] p_0/k_B:  86.64179 [K], p_1: 3.96800 [A], shift/k_B:  -5.08349348 [K], tailcorrection: no
    Cu1 -  CH_sp3 [LENNARD_JONES] p_0/k_B:  47.73730 [K], p_1: 4.32300 [A], shift/k_B:  -4.63595509 [K], tailcorrection: no
    Cu1 -   C_sp3 [LENNARD_JONES] p_0/k_B:  10.35567 [K], p_1: 5.17800 [A], shift/k_B:  -2.82165990 [K], tailcorrection: no
    Cu1 -   H_com [LENNARD_JONES] p_0/k_B:  70.14011 [K], p_1: 3.46700 [A], shift/k_B:  -1.84638730 [K], tailcorrection: no
    Cu1 -   C_co2 [LENNARD_JONES] p_0/k_B:  60.16103 [K], p_1: 3.38800 [A], shift/k_B:  -1.38033009 [K], tailcorrection: no
    Cu1 -   O_co2 [LENNARD_JONES] p_0/k_B: 102.90748 [K], p_1: 3.51300 [A], shift/k_B:  -2.93029095 [K], tailcorrection: no
    Cu1 -    N_n2 [LENNARD_JONES] p_0/k_B:  69.46798 [K], p_1: 3.64300 [A], shift/k_B:  -2.45566893 [K], tailcorrection: no
[...]
	Average              0.00000 [K] +/-            0.00000 [K]

Average Cation Improper Torsion energy:
=======================================
	Block[ 0]            0.00000 [K]
	Block[ 1]            0.00000 [K]
	Block[ 2]            0.00000 [K]
	Block[ 3]            0.00000 [K]
	Block[ 4]            0.00000 [K]
	------------------------------------------------------------------------------
	Average              0.00000 [K] +/-            0.00000 [K]

Average Cation Bond-Bond cross term energy:
=================================================
	Block[ 0]            0.00000 [K]
	Block[ 1]            0.00000 [K]
	Block[ 2]            0.00000 [K]
	Block[ 3]            0.00000 [K]
	Block[ 4]            0.00000 [K]
	------------------------------------------------------------------------------
	Average              0.00000 [K] +/-            0.00000 [K]

Average Cation Bend-Bend cross term energy:
===========================================
	Block[ 0]            0.00000 [K]
	Block[ 1]            0.00000 [K]
	Block[ 2]            0.00000 [K]
	Block[ 3]            0.00000 [K]
	Block[ 4]            0.00000 [K]
	------------------------------------------------------------------------------
	Average              0.00000 [K] +/-            0.00000 [K]

Average Cation Bond-Bend cross term energy:
==============================================
	Block[ 0]            0.00000 [K]
	Block[ 1]            0.00000 [K]
	Block[ 2]            0.00000 [K]
	Block[ 3]            0.00000 [K]
	Block[ 4]            0.00000 [K]
	------------------------------------------------------------------------------
	Average              0.00000 [K] +/-            0.00000 [K]

Average Cation Bond-Torsion cross term energy:
==============================================
	Block[ 0]            0.00000 [K]
	Block[ 1]            0.00000 [K]
	Block[ 2]            0.00000 [K]
	Block[ 3]            0.00000 [K]
	Block[ 4]            0.00000 [K]
	------------------------------------------------------------------------------
	Average              0.00000 [K] +/-            0.00000 [K]

Average Cation Bend-Torsion cross term energy:
==============================================
	Block[ 0]            0.00000 [K]
	Block[ 1]            0.00000 [K]
	Block[ 2]            0.00000 [K]
	Block[ 3]            0.00000 [K]
	Block[ 4]            0.00000 [K]
	------------------------------------------------------------------------------
	Average              0.00000 [K] +/-            0.00000 [K]

Average Cation Intra Van der Waals energy:
==========================================
	Block[ 0]            0.00000 [K]
	Block[ 1]            0.00000 [K]
	Block[ 2]            0.00000 [K]
	Block[ 3]            0.00000 [K]
	Block[ 4]            0.00000 [K]
	------------------------------------------------------------------------------
	Average              0.00000 [K] +/-            0.00000 [K]

Average Cation Intra charge-charge Coulomb energy:
====================================
	Block[ 0]            0.00000 [K]
	Block[ 1]            0.00000 [K]
	Block[ 2]            0.00000 [K]
	Block[ 3]            0.00000 [K]
	Block[ 4]            0.00000 [K]
	------------------------------------------------------------------------------
	Average              0.00000 [K] +/-            0.00000 [K]

Average Cation Intra charge-bonddipole Coulomb energy:
====================================
	Block[ 0]            0.00000 [K]
	Block[ 1]            0.00000 [K]
	Block[ 2]            0.00000 [K]
	Block[ 3]            0.00000 [K]
	Block[ 4]            0.00000 [K]
	------------------------------------------------------------------------------
	Average              0.00000 [K] +/-            0.00000 [K]

Average Cation Intra bonddipole-bonddipole Coulomb energy:
====================================
	Block[ 0]            0.00000 [K]
	Block[ 1]            0.00000 [K]
	Block[ 2]            0.00000 [K]
	Block[ 3]            0.00000 [K]
	Block[ 4]            0.00000 [K]
	------------------------------------------------------------------------------
	Average              0.00000 [K] +/-            0.00000 [K]

Average Host-Host energy:
=========================
	Block[ 0] 0.00000            Van der Waals: 0.00000            Coulomb: 0.00000            [K]
	Block[ 1] 0.00000            Van der Waals: 0.00000            Coulomb: 0.00000            [K]
	Block[ 2] 0.00000            Van der Waals: 0.00000            Coulomb: 0.00000            [K]
	Block[ 3] 0.00000            Van der Waals: 0.00000            Coulomb: 0.00000            [K]
	Block[ 4] 0.00000            Van der Waals: 0.00000            Coulomb: 0.00000            [K]
	------------------------------------------------------------------------------
	Average   0.00000            Van der Waals: 0.000000           Coulomb: 0.00000            [K]
	      +/- 0.00000                       +/- 0.000000                +/- 0.00000            [K]

Average Adsorbate-Adsorbate energy:
===================================
	Block[ 0] 0.00000            Van der Waals: 0.00000            Coulomb: 0.00000            [K]
	Block[ 1] 0.00000            Van der Waals: 0.00000            Coulomb: 0.00000            [K]
	Block[ 2] 0.00000            Van der Waals: 0.00000            Coulomb: 0.00000            [K]
	Block[ 3] 0.00000            Van der Waals: 0.00000            Coulomb: 0.00000            [K]
	Block[ 4] 0.00000            Van der Waals: 0.00000            Coulomb: 0.00000            [K]
	------------------------------------------------------------------------------
	Average   0.00000            Van der Waals: 0.000000           Coulomb: 0.00000            [K]
	      +/- 0.00000                       +/- 0.000000                +/- 0.00000            [K]

Average Cation-Cation energy:
=============================
	Block[ 0] 0.00000            Van der Waals: 0.00000            Coulomb: 0.00000            [K]
	Block[ 1] 0.00000            Van der Waals: 0.00000            Coulomb: 0.00000            [K]
	Block[ 2] 0.00000            Van der Waals: 0.00000            Coulomb: 0.00000            [K]
	Block[ 3] 0.00000            Van der Waals: 0.00000            Coulomb: 0.00000            [K]
	Block[ 4] 0.00000            Van der Waals: 0.00000            Coulomb: 0.00000            [K]
	------------------------------------------------------------------------------
	Average   0.00000            Van der Waals: 0.000000           Coulomb: 0.00000            [K]
	      +/- 0.00000                       +/- 0.000000                +/- 0.00000            [K]

Average Host-Adsorbate energy:
==============================
	Block[ 0] 0.00000            Van der Waals: 0.00000            Coulomb: 0.00000            [K]
	Block[ 1] 0.00000            Van der Waals: 0.00000            Coulomb: 0.00000            [K]
	Block[ 2] 0.00000            Van der Waals: 0.00000            Coulomb: 0.00000            [K]
	Block[ 3] 0.00000            Van der Waals: 0.00000            Coulomb: 0.00000            [K]
	Block[ 4] 0.00000            Van der Waals: 0.00000            Coulomb: 0.00000            [K]
	------------------------------------------------------------------------------
	Average   0.00000            Van der Waals: 0.000000           Coulomb: 0.00000            [K]
	      +/- 0.00000                       +/- 0.000000                +/- 0.00000            [K]

Average Host-Cation energy:
===========================
	Block[ 0] 0.00000            Van der Waals: 0.00000            Coulomb: 0.00000            [K]
	Block[ 1] 0.00000            Van der Waals: 0.00000            Coulomb: 0.00000            [K]
	Block[ 2] 0.00000            Van der Waals: 0.00000            Coulomb: 0.00000            [K]
	Block[ 3] 0.00000            Van der Waals: 0.00000            Coulomb: 0.00000            [K]
	Block[ 4] 0.00000            Van der Waals: 0.00000            Coulomb: 0.00000            [K]
	------------------------------------------------------------------------------
	Average   0.00000            Van der Waals: 0.000000           Coulomb: 0.00000            [K]
	      +/- 0.00000                       +/- 0.000000                +/- 0.00000            [K]

Average Adsorbate-Cation energy:
================================
	Block[ 0] 0.00000            Van der Waals: 0.00000            Coulomb: 0.00000            [K]
	Block[ 1] 0.00000            Van der Waals: 0.00000            Coulomb: 0.00000            [K]
	Block[ 2] 0.00000            Van der Waals: 0.00000            Coulomb: 0.00000            [K]
	Block[ 3] 0.00000            Van der Waals: 0.00000            Coulomb: 0.00000            [K]
	Block[ 4] 0.00000            Van der Waals: 0.00000            Coulomb: 0.00000            [K]
	------------------------------------------------------------------------------
	Average   0.00000            Van der Waals: 0.000000           Coulomb: 0.00000            [K]
	      +/- 0.00000                       +/- 0.000000                +/- 0.00000            [K]

Host polarization energy:
=======================
	Block[ 0]            0.00000 [K]
	Block[ 1]            0.00000 [K]
	Block[ 2]            0.00000 [K]
	Block[ 3]            0.00000 [K]
	Block[ 4]            0.00000 [K]
	------------------------------------------------------------------------------
	Average              0.00000 [K] +/-            0.00000 [K]

Adsorbate polarization energy:
=======================
	Block[ 0]            0.00000 [K]
	Block[ 1]            0.00000 [K]
	Block[ 2]            0.00000 [K]
	Block[ 3]            0.00000 [K]
	Block[ 4]            0.00000 [K]
	------------------------------------------------------------------------------
	Average              0.00000 [K] +/-            0.00000 [K]

Cation polarization energy:
=======================
	Block[ 0]            0.00000 [K]
	Block[ 1]            0.00000 [K]
	Block[ 2]            0.00000 [K]
	Block[ 3]            0.00000 [K]
	Block[ 4]            0.00000 [K]
	------------------------------------------------------------------------------
	Average              0.00000 [K] +/-            0.00000 [K]

Host back-polarization energy:
=======================
	Block[ 0]            0.00000 [K]
	Block[ 1]            0.00000 [K]
	Block[ 2]            0.00000 [K]
	Block[ 3]            0.00000 [K]
	Block[ 4]            0.00000 [K]
	------------------------------------------------------------------------------
	Average              0.00000 [K] +/-            0.00000 [K]

Adsorbate back-polarization energy:
=======================
	Block[ 0]            0.00000 [K]
	Block[ 1]            0.00000 [K]
	Block[ 2]            0.00000 [K]
	Block[ 3]            0.00000 [K]
	Block[ 4]            0.00000 [K]
	------------------------------------------------------------------------------
	Average              0.00000 [K] +/-            0.00000 [K]

Cation back-polarization energy:
=======================
	Block[ 0]            0.00000 [K]
	Block[ 1]            0.00000 [K]
	Block[ 2]            0.00000 [K]
	Block[ 3]            0.00000 [K]
	Block[ 4]            0.00000 [K]
	------------------------------------------------------------------------------
	Average              0.00000 [K] +/-            0.00000 [K]

Tail-correction energy:
=======================
	Block[ 0]            0.00000 [K]
	Block[ 1]            0.00000 [K]
	Block[ 2]            0.00000 [K]
	Block[ 3]            0.00000 [K]
	Block[ 4]            0.00000 [K]
	------------------------------------------------------------------------------
	Average              0.00000 [K] +/-            0.00000 [K]

Distance-constraints energy:
=======================
	Block[ 0]            0.00000 [K]
	Block[ 1]            0.00000 [K]
	Block[ 2]            0.00000 [K]
	Block[ 3]            0.00000 [K]
	Block[ 4]            0.00000 [K]
	------------------------------------------------------------------------------
	Average              0.00000 [K] +/-            0.00000 [K]

Angle-constraints energy:
=======================
	Block[ 0]            0.00000 [K]
	Block[ 1]            0.00000 [K]
	Block[ 2]            0.00000 [K]
	Block[ 3]            0.00000 [K]
	Block[ 4]            0.00000 [K]
	------------------------------------------------------------------------------
	Average              0.00000 [K] +/-            0.00000 [K]

Dihedral-constraints energy:
=======================
	Block[ 0]            0.00000 [K]
	Block[ 1]            0.00000 [K]
	Block[ 2]            0.00000 [K]
	Block[ 3]            0.00000 [K]
	Block[ 4]            0.00000 [K]
	------------------------------------------------------------------------------
	Average              0.00000 [K] +/-            0.00000 [K]

Inversion-bend constraints energy:
=======================
	Block[ 0]            0.00000 [K]
	Block[ 1]            0.00000 [K]
	Block[ 2]            0.00000 [K]
	Block[ 3]            0.00000 [K]
	Block[ 4]            0.00000 [K]
	------------------------------------------------------------------------------
	Average              0.00000 [K] +/-            0.00000 [K]

Out-of-plane-distance constraints energy:
=======================
	Block[ 0]            0.00000 [K]
	Block[ 1]            0.00000 [K]
	Block[ 2]            0.00000 [K]
	Block[ 3]            0.00000 [K]
	Block[ 4]            0.00000 [K]
	------------------------------------------------------------------------------
	Average              0.00000 [K] +/-            0.00000 [K]

Exclusion-constraints energy:
=======================
	Block[ 0]            0.00000 [K]
	Block[ 1]            0.00000 [K]
	Block[ 2]            0.00000 [K]
	Block[ 3]            0.00000 [K]
	Block[ 4]            0.00000 [K]
	------------------------------------------------------------------------------
	Average              0.00000 [K] +/-            0.00000 [K]

Total energy:
=============
	Block[ 0]            0.00000 [K]
	Block[ 1]            0.00000 [K]
	Block[ 2]            0.00000 [K]
	Block[ 3]            0.00000 [K]
	Block[ 4]            0.00000 [K]
	------------------------------------------------------------------------------
	Average              0.00000 [K] +/-            0.00000 [K]

Number of molecules:
====================

Component 0 [H2]
-------------------------------------------------------------
	Block[ 0] 0.00000            [-]
	Block[ 1] 0.00000            [-]
	Block[ 2] 0.00000            [-]
	Block[ 3] 0.00000            [-]
	Block[ 4] 0.00000            [-]
	------------------------------------------------------------------------------
	Average loading absolute                              0.0000000000 +/-       0.0000000000 [-]
	Average loading absolute [molecules/unit cell]        0.0000000000 +/-       0.0000000000 [-]
	Average loading absolute [mol/kg framework]                  0.0000000000 +/-       0.0000000000 [-]
	Average loading absolute [milligram/gram framework]          0.0000000000 +/-       0.0000000000 [-]
	Average loading absolute [cm^3 (STP)/gr framework]           0.0000000000 +/-       0.0000000000 [-]
	Average loading absolute [cm^3 (STP)/cm^3 framework]         0.0000000000 +/-       0.0000000000 [-]

	Block[ 0] 0.00000            [-]
	Block[ 1] 0.00000            [-]
	Block[ 2] 0.00000            [-]
	Block[ 3] 0.00000            [-]
	Block[ 4] 0.00000            [-]
	------------------------------------------------------------------------------
	Average loading excess                              0.0000000000 +/-       0.0000000000 [-]
	Average loading excess [molecules/unit cell]        0.0000000000 +/-       0.0000000000 [-]
	Average loading excess [mol/kg framework]                    0.0000000000 +/-       0.0000000000 [-]
	Average loading excess [milligram/gram framework]            0.0000000000 +/-       0.0000000000 [-]
	Average loading excess [cm^3 (STP)/gr framework]             0.0000000000 +/-       0.0000000000 [-]
	Average loading excess [cm^3 (STP)/cm^3 framework]           0.0000000000 +/-       0.0000000000 [-]


Average Widom Rosenbluth factor:
================================
	Block[ 0] 0 [-]
	Block[ 1] 0 [-]
	Block[ 2] 0 [-]
	Block[ 3] 0 [-]
	Block[ 4] 0 [-]
	------------------------------------------------------------------------------
	[H2] Average Widom Rosenbluth-weight:   0 +/- 0.000000 [-]

Average Widom chemical potential:
=================================
	Block[ 0] 0 [-]
	Block[ 1] 0 [-]
	Block[ 2] 0 [-]
	Block[ 3] 0 [-]
	Block[ 4] 0 [-]
	------------------------------------------------------------------------------
	[H2] Average chemical potential:   0 +/- 0.000000 [K]

Average Widom Ideal-gas contribution:
=====================================
	Block[ 0] 0 [-]
	Block[ 1] 0 [-]
	Block[ 2] 0 [-]
	Block[ 3] 0 [-]
	Block[ 4] 0 [-]
	------------------------------------------------------------------------------
	[H2] Average Widom Ideal-gas chemical potential:   0 +/- 0.000000 [-]

Average Widom excess contribution:
==================================
	Block[ 0] 0 [-]
	Block[ 1] 0 [-]
	Block[ 2] 0 [-]
	Block[ 3] 0 [-]
	Block[ 4] 0 [-]
	------------------------------------------------------------------------------
	[H2] Average Widom excess chemical potential:   0 +/- 0.000000 [-]

Average Gibbs Widom Rosenbluth factor:
======================================
	Block[ 0] 0 [-]
	Block[ 1] 0 [-]
	Block[ 2] 0 [-]
	Block[ 3] 0 [-]
	Block[ 4] 0 [-]
	------------------------------------------------------------------------------
	[H2] Average Gibbs Widom Rosenbluth-weight:   0 +/- 0.000000 [-]

Average Gibbs Widom chemical potential:
=======================================
	Block[ 0] 0 [-]
	Block[ 1] 0 [-]
	Block[ 2] 0 [-]
	Block[ 3] 0 [-]
	Block[ 4] 0 [-]
	------------------------------------------------------------------------------
	[H2] Average Gibbs chemical potential:   0 +/- 0.000000 [K]

Average osmostat calibration for alchemical transformation:
=======================================
	Block[ 0] 0 [-]
	Block[ 1] 0 [-]
	Block[ 2] 0 [-]
	Block[ 3] 0 [-]
	Block[ 4] 0 [-]
	------------------------------------------------------------------------------
	Average osmostat calibration for alchemical transformation:   0 +/- 0.000000 [K]
	Average osmostat calibration for alchemical transformation:   0 +/- 0.000000 [kJ/mol]

Average Gibbs Widom Ideal-gas contribution:
===========================================
	Block[ 0] 0 [-]
	Block[ 1] 0 [-]
	Block[ 2] 0 [-]
	Block[ 3] 0 [-]
	Block[ 4] 0 [-]
	------------------------------------------------------------------------------
	[H2] Average Gibbs Ideal-gas chemical potential:   0 +/- 0.000000 [-]

Average Gibbs Widom excess contribution:
===========================================
	Block[ 0] 0 [-]
	Block[ 1] 0 [-]
	Block[ 2] 0 [-]
	Block[ 3] 0 [-]
	Block[ 4] 0 [-]
	------------------------------------------------------------------------------
	[H2] Average Gibbs excess chemical potential:   0 +/- 0.000000 [-]

Average Henry coefficient:
==========================
	Block[ 0] 0 [mol/kg/Pa]
	Block[ 1] 0 [mol/kg/Pa]
	Block[ 2] 0 [mol/kg/Pa]
	Block[ 3] 0 [mol/kg/Pa]
	Block[ 4] 0 [mol/kg/Pa]
	------------------------------------------------------------------------------
	[H2] Average Henry coefficient:  0 +/- 0 [mol/kg/Pa]

Average adsorption energy <U_gh>_1-<U_h>_0 obtained from Widom-insertion:
(Note: the total heat of adsorption is dH=<U_gh>_1-<U_h>_0 - <U_g> - RT)
=========================================================================

Simulation finished,  1 warnings
WARNING: THERE ARE ATOM-PAIRS WITH NO VDW INTERACTION Cu1-H_h2 Cu2-H_h2 Cu3-H_h2 Cu4-H_h2 Cu5-H_h2 Cu6-H_h2 H7-H_h2 H8-H_h2 H9-H_h2 H10-H_h2 H11-H_h2 H12-H_h2 H13-H_h2 H14-H_h2 H15-H_h2 H16-H_h2 H17-H_h2 H18-H_h2 H19-H_h2 H20-H_h2 H21-H_h2 H22-H_h2 H23-H_h2 H24-H_h2 H25-H_h2 H26-H_h2 H27-H_h2 H28-H_h2 H29-H_h2 H30-H_h2 H31-H_h2 H32-H_h2 H33-H_h2 H34-H_h2 H35-H_h2 H36-H_h2 H37-H_h2 H38-H_h2 H39-H_h2 H40-H_h2 H41-H_h2 H42-H_h2 H43-H_h2 H44-H_h2 H45-H_h2 H46-H_h2 H47-H_h2 H48-H_h2 C49-H_h2 C50-H_h2  (maximum 50 interactions shown)


Sun Apr 28 12:13:11 2024
Simulation finished on Sunday, April 28.
The end time was 12:13 PM.

